/*--------------------------------*- C++ -*----------------------------------*\
| =========                 |                                                 |
| \\      /  F ield         | OpenFOAM: The Open Source CFD Toolbox           |
|  \\    /   O peration     | Version:  2406                                  |
|   \\  /    A nd           | Website:  www.openfoam.com                      |
|    \\/     M anipulation  |                                                 |
\*---------------------------------------------------------------------------*/
FoamFile
{
    version     2.0;
    format      ascii;
    arch        "LSB;label=32;scalar=64";
    class       volScalarField;
    location    "7.15";
    object      gradTy;
}
// * * * * * * * * * * * * * * * * * * * * * * * * * * * * * * * * * * * * * //

dimensions      [0 -1 0 1 0 0 0];

internalField   nonuniform List<scalar> 
100
(
-9.66368e+12
1.07374e+12
6.44245e+12
8.58993e+12
1.07374e+12
-1.07374e+12
0
2.14748e+12
0
-1.07374e+12
-1.71799e+13
-1.07374e+12
1.82536e+13
1.61061e+13
1.07374e+12
5.36871e+12
6.44245e+12
5.36871e+12
9.66368e+12
-3.22123e+12
-2.14748e+12
4.29497e+12
1.07374e+13
8.58993e+12
5.36871e+12
1.50324e+13
8.58993e+12
-1.07374e+12
8.58993e+12
4.29497e+12
1.28849e+13
6.44245e+12
-4.29497e+12
-5.36871e+12
-5.36871e+12
3.22123e+12
-4.29497e+12
-5.36871e+12
0
-5.36871e+12
1.07374e+12
-1.07374e+12
-7.51619e+12
-1.07374e+13
-1.39586e+13
-4.29497e+12
-7.51619e+12
0
-1.07374e+12
-1.28849e+13
5.36871e+12
4.29497e+12
2.14748e+12
-3.22123e+12
1.18112e+13
1.07374e+13
6.44245e+12
1.07374e+12
-3.22123e+12
-4.29497e+12
1.82536e+13
1.93274e+13
2.25486e+13
9.66368e+12
1.71799e+13
1.61061e+13
1.61061e+13
1.07374e+13
1.07374e+12
-3.22123e+12
1.50324e+13
2.25486e+13
2.46961e+13
1.82536e+13
1.71799e+13
1.28849e+13
1.18112e+13
8.58993e+12
-4.29497e+12
-9.66368e+12
1.39586e+13
8.58993e+12
5.36871e+12
1.18112e+13
5.36871e+12
-3.22123e+12
5.36871e+12
-6.44245e+12
-2.04011e+13
-9.66368e+12
6.44245e+12
0
-4.29497e+12
4.29497e+12
-1.07374e+12
-5.36871e+12
-2.14748e+12
-5.36871e+12
-1.07374e+13
-4.29497e+12
)
;

boundaryField
{
    left
    {
        type            calculated;
        value           nonuniform List<scalar> 10(-9.66368e+12 -1.71799e+13 -2.14748e+12 1.28849e+13 1.07374e+12 5.36871e+12 1.82536e+13 1.50324e+13 1.39586e+13 6.44245e+12);
    }
    right
    {
        type            calculated;
        value           nonuniform List<scalar> 10(-1.07374e+12 -3.22123e+12 4.29497e+12 -5.36871e+12 -1.28849e+13 -4.29497e+12 -3.22123e+12 -9.66368e+12 -9.66368e+12 -4.29497e+12);
    }
    top
    {
        type            calculated;
        value           uniform 0;
    }
    bottom
    {
        type            calculated;
        value           uniform 0;
    }
    defaultFaces
    {
        type            empty;
    }
}


// ************************************************************************* //
