/*--------------------------------*- C++ -*----------------------------------*\
| =========                 |                                                 |
| \\      /  F ield         | OpenFOAM: The Open Source CFD Toolbox           |
|  \\    /   O peration     | Version:  2406                                  |
|   \\  /    A nd           | Website:  www.openfoam.com                      |
|    \\/     M anipulation  |                                                 |
\*---------------------------------------------------------------------------*/
FoamFile
{
    version     2.0;
    format      ascii;
    arch        "LSB;label=32;scalar=64";
    class       volScalarField;
    location    "7.65";
    object      gradTx;
}
// * * * * * * * * * * * * * * * * * * * * * * * * * * * * * * * * * * * * * //

dimensions      [0 -1 0 1 0 0 0];

internalField   nonuniform List<scalar> 
100
(
-1.51183e+15
-3.57341e+15
-1.37439e+14
1.51183e+15
-2.06158e+15
-2.4739e+15
-2.74878e+14
-8.24634e+14
1.23695e+15
1.51183e+15
-2.74878e+14
-1.09951e+15
1.37439e+15
6.87195e+14
-4.12317e+15
-3.02366e+15
2.74878e+14
-1.37439e+14
6.87195e+14
1.23695e+15
1.23695e+15
2.33646e+15
2.33646e+15
-1.51183e+15
-5.22268e+15
-2.06158e+15
8.24634e+14
5.49756e+14
0
0
4.12317e+14
4.12317e+14
4.12317e+14
-1.23695e+15
-2.74878e+15
-2.4739e+15
-1.92415e+15
1.37439e+14
1.51183e+15
6.87195e+14
-2.74878e+14
-1.23695e+15
-5.49756e+14
-2.33646e+15
-3.43597e+15
-1.92415e+15
-4.12317e+14
1.37439e+15
0
-1.37439e+15
4.12317e+14
-1.51183e+15
-8.24634e+14
-1.09951e+15
-1.51183e+15
-1.37439e+15
-1.23695e+15
1.64927e+15
-2.74878e+14
-1.37439e+15
5.49756e+14
-2.74878e+14
-2.74878e+14
2.74878e+14
-1.51183e+15
-2.06158e+15
-1.64927e+15
-6.87195e+14
-1.92415e+15
-1.78671e+15
5.49756e+14
1.37439e+14
-1.09951e+15
-8.24634e+14
-1.23695e+15
-2.33646e+15
-1.64927e+15
-5.49756e+14
-2.88622e+15
-2.61134e+15
1.92415e+15
1.09951e+15
-1.23695e+15
-1.51183e+15
-1.23695e+15
-1.51183e+15
-2.06158e+15
-2.88622e+15
-5.635e+15
-3.43597e+15
5.49756e+14
-2.74878e+14
-5.49756e+14
-1.23695e+15
-2.61134e+15
-1.92415e+15
-2.19902e+15
-4.53549e+15
-4.53549e+15
-1.37439e+15
)
;

boundaryField
{
    left
    {
        type            calculated;
        value           uniform 0;
    }
    right
    {
        type            calculated;
        value           uniform 0;
    }
    top
    {
        type            calculated;
        value           nonuniform List<scalar> 10(5.49756e+14 -2.74878e+14 -5.49756e+14 -1.23695e+15 -2.61134e+15 -1.92415e+15 -2.19902e+15 -4.53549e+15 -4.53549e+15 -1.37439e+15);
    }
    bottom
    {
        type            calculated;
        value           nonuniform List<scalar> 10(-1.51183e+15 -3.57341e+15 -1.37439e+14 1.51183e+15 -2.06158e+15 -2.4739e+15 -2.74878e+14 -8.24634e+14 1.23695e+15 1.51183e+15);
    }
    defaultFaces
    {
        type            empty;
    }
}


// ************************************************************************* //
