/*--------------------------------*- C++ -*----------------------------------*\
| =========                 |                                                 |
| \\      /  F ield         | OpenFOAM: The Open Source CFD Toolbox           |
|  \\    /   O peration     | Version:  2406                                  |
|   \\  /    A nd           | Website:  www.openfoam.com                      |
|    \\/     M anipulation  |                                                 |
\*---------------------------------------------------------------------------*/
FoamFile
{
    version     2.0;
    format      ascii;
    arch        "LSB;label=32;scalar=64";
    class       volScalarField;
    location    "4.1";
    object      gradTy;
}
// * * * * * * * * * * * * * * * * * * * * * * * * * * * * * * * * * * * * * //

dimensions      [0 -1 0 1 0 0 0];

internalField   nonuniform List<scalar> 
100
(
-0.213623
-0.0915527
0.0610352
0.152588
0.0610352
-0.0610352
0.0305176
0.0610352
0.0305176
0
-0.549316
-0.183105
0.396729
0.274658
0
0.0915527
0.152588
0.12207
0.244141
0.12207
-0.183105
0.12207
0.213623
0.12207
0.12207
0.274658
0.152588
-0.0305176
0.183105
0.213623
0.274658
0.152588
-0.183105
-0.213623
-0.12207
0.12207
-0.12207
-0.0915527
0
-0.12207
-0.0610352
-0.152588
-0.305176
-0.305176
-0.396729
-0.183105
-0.12207
0
0
-0.396729
0.0915527
0.12207
0
-0.152588
0.213623
0.274658
0.213623
0.0915527
-0.0305176
-0.183105
0.457764
0.488281
0.518799
0.274658
0.396729
0.335693
0.335693
0.244141
0.0305176
-0.183105
0.488281
0.488281
0.671387
0.396729
0.244141
0.274658
0.213623
0.213623
-0.183105
-0.335693
0.305176
0.244141
0.213623
0.335693
0.183105
-0.0610352
0.0305176
-0.152588
-0.549316
-0.305176
0.183105
0
-0.0915527
0.183105
0.0305176
-0.0915527
-0.0305176
-0.183105
-0.305176
-0.0610352
)
;

boundaryField
{
    left
    {
        type            calculated;
        value           nonuniform List<scalar> 10(-0.213623 -0.549316 -0.183105 0.274658 -0.0610352 0.0915527 0.457764 0.488281 0.305176 0.183105);
    }
    right
    {
        type            calculated;
        value           nonuniform List<scalar> 10(0 0.12207 0.213623 -0.12207 -0.396729 -0.183105 -0.183105 -0.335693 -0.305176 -0.0610352);
    }
    top
    {
        type            calculated;
        value           uniform 0;
    }
    bottom
    {
        type            calculated;
        value           uniform 0;
    }
    defaultFaces
    {
        type            empty;
    }
}


// ************************************************************************* //
