/*--------------------------------*- C++ -*----------------------------------*\
| =========                 |                                                 |
| \\      /  F ield         | OpenFOAM: The Open Source CFD Toolbox           |
|  \\    /   O peration     | Version:  2406                                  |
|   \\  /    A nd           | Website:  www.openfoam.com                      |
|    \\/     M anipulation  |                                                 |
\*---------------------------------------------------------------------------*/
FoamFile
{
    version     2.0;
    format      ascii;
    arch        "LSB;label=32;scalar=64";
    class       volScalarField;
    location    "2";
    object      gradTy;
}
// * * * * * * * * * * * * * * * * * * * * * * * * * * * * * * * * * * * * * //

dimensions      [0 -1 0 1 0 0 0];

internalField   nonuniform List<scalar> 
100
(
-1.13687e-10
-2.84217e-11
2.84217e-11
7.10543e-11
0
-2.84217e-11
1.42109e-11
2.84217e-11
2.84217e-11
-1.42109e-11
-2.27374e-10
-4.26326e-11
1.7053e-10
1.56319e-10
1.42109e-11
5.68434e-11
7.10543e-11
7.10543e-11
1.27898e-10
5.68434e-11
-2.84217e-11
1.42109e-11
9.9476e-11
4.26326e-11
5.68434e-11
1.7053e-10
7.10543e-11
-2.84217e-11
1.27898e-10
1.42109e-10
1.27898e-10
5.68434e-11
-8.52651e-11
-8.52651e-11
-4.26326e-11
2.84217e-11
-2.84217e-11
-4.26326e-11
1.42109e-11
-7.10543e-11
-5.68434e-11
-5.68434e-11
-1.42109e-10
-1.56319e-10
-1.13687e-10
-2.84217e-11
-7.10543e-11
0
0
-1.56319e-10
-2.84217e-11
1.42109e-11
-1.42109e-11
-2.84217e-11
7.10543e-11
1.27898e-10
1.13687e-10
4.26326e-11
-1.42109e-11
-2.84217e-11
1.42109e-10
1.42109e-10
1.98952e-10
1.13687e-10
1.13687e-10
1.27898e-10
1.42109e-10
1.13687e-10
0
-8.52651e-11
1.56319e-10
1.84741e-10
1.98952e-10
1.13687e-10
8.52651e-11
9.9476e-11
7.10543e-11
8.52651e-11
-7.10543e-11
-2.27374e-10
9.9476e-11
9.9476e-11
7.10543e-11
7.10543e-11
1.42109e-11
-5.68434e-11
7.10543e-11
-8.52651e-11
-2.55795e-10
-1.27898e-10
7.10543e-11
2.84217e-11
-1.42109e-11
2.84217e-11
-2.84217e-11
-7.10543e-11
-1.42109e-11
-1.13687e-10
-1.42109e-10
0
)
;

boundaryField
{
    left
    {
        type            calculated;
        value           nonuniform List<scalar> 10(-1.13687e-10 -2.27374e-10 -2.84217e-11 1.27898e-10 -5.68434e-11 -2.84217e-11 1.42109e-10 1.56319e-10 9.9476e-11 7.10543e-11);
    }
    right
    {
        type            calculated;
        value           nonuniform List<scalar> 10(-1.42109e-11 5.68434e-11 1.42109e-10 -7.10543e-11 -1.56319e-10 -2.84217e-11 -8.52651e-11 -2.27374e-10 -1.27898e-10 0);
    }
    top
    {
        type            calculated;
        value           uniform 0;
    }
    bottom
    {
        type            calculated;
        value           uniform 0;
    }
    defaultFaces
    {
        type            empty;
    }
}


// ************************************************************************* //
