/*--------------------------------*- C++ -*----------------------------------*\
| =========                 |                                                 |
| \\      /  F ield         | OpenFOAM: The Open Source CFD Toolbox           |
|  \\    /   O peration     | Version:  2406                                  |
|   \\  /    A nd           | Website:  www.openfoam.com                      |
|    \\/     M anipulation  |                                                 |
\*---------------------------------------------------------------------------*/
FoamFile
{
    version     2.0;
    format      ascii;
    arch        "LSB;label=32;scalar=64";
    class       volScalarField;
    location    "5.55";
    object      gradTy;
}
// * * * * * * * * * * * * * * * * * * * * * * * * * * * * * * * * * * * * * //

dimensions      [0 -1 0 1 0 0 0];

internalField   nonuniform List<scalar> 
100
(
-768000
-128000
768000
640000
384000
-64000
-64000
320000
128000
-64000
-1.472e+06
-256000
1.472e+06
1.216e+06
320000
320000
576000
512000
768000
320000
64000
320000
512000
256000
128000
1.152e+06
576000
-192000
576000
768000
1.024e+06
320000
-704000
-640000
-448000
320000
0
-128000
64000
-512000
-192000
-320000
-896000
-640000
-960000
-320000
-320000
64000
192000
-1.088e+06
0
128000
128000
0
576000
576000
384000
64000
-256000
-384000
1.152e+06
1.728e+06
1.664e+06
832000
1.6e+06
1.344e+06
1.152e+06
768000
0
-576000
1.408e+06
2.048e+06
1.984e+06
960000
960000
1.28e+06
896000
576000
-448000
-1.152e+06
960000
576000
640000
640000
-64000
-576000
0
-576000
-1.6e+06
-704000
576000
0
-320000
192000
-256000
-768000
-320000
-576000
-1.088e+06
-192000
)
;

boundaryField
{
    left
    {
        type            calculated;
        value           nonuniform List<scalar> 10(-768000 -1.472e+06 64000 1.024e+06 -192000 0 1.152e+06 1.408e+06 960000 576000);
    }
    right
    {
        type            calculated;
        value           nonuniform List<scalar> 10(-64000 320000 768000 -512000 -1.088e+06 -384000 -576000 -1.152e+06 -704000 -192000);
    }
    top
    {
        type            calculated;
        value           uniform 0;
    }
    bottom
    {
        type            calculated;
        value           uniform 0;
    }
    defaultFaces
    {
        type            empty;
    }
}


// ************************************************************************* //
