/*--------------------------------*- C++ -*----------------------------------*\
| =========                 |                                                 |
| \\      /  F ield         | OpenFOAM: The Open Source CFD Toolbox           |
|  \\    /   O peration     | Version:  2406                                  |
|   \\  /    A nd           | Website:  www.openfoam.com                      |
|    \\/     M anipulation  |                                                 |
\*---------------------------------------------------------------------------*/
FoamFile
{
    version     2.0;
    format      ascii;
    arch        "LSB;label=32;scalar=64";
    class       volVectorField;
    location    "9.5";
    object      flux;
}
// * * * * * * * * * * * * * * * * * * * * * * * * * * * * * * * * * * * * * //

dimensions      [0 1 -1 1 0 0 0];

internalField   nonuniform List<vector> 
100
(
(-1.03302e+22 -8.85444e+21 0)
(-2.36118e+22 -1.47574e+21 0)
(0 4.42722e+21 0)
(2.95148e+21 5.90296e+21 0)
(-2.65633e+22 1.47574e+21 0)
(-2.36118e+22 -1.47574e+21 0)
(4.42722e+21 2.95148e+21 0)
(4.42722e+21 2.95148e+21 0)
(5.90296e+21 1.47574e+21 0)
(1.03302e+22 0 0)
(-4.42722e+21 -2.06604e+22 0)
(-8.85444e+21 -1.47574e+21 0)
(7.3787e+21 2.06604e+22 0)
(0 1.77089e+22 0)
(-3.54177e+22 5.90296e+21 0)
(-2.36118e+22 7.3787e+21 0)
(1.03302e+22 1.18059e+22 0)
(4.42722e+21 1.03302e+22 0)
(2.95148e+21 1.32817e+22 0)
(8.85444e+21 4.42722e+21 0)
(8.85444e+21 -2.95148e+21 0)
(1.77089e+22 5.90296e+21 0)
(1.77089e+22 1.03302e+22 0)
(-1.03302e+22 8.85444e+21 0)
(-3.68935e+22 7.3787e+21 0)
(-1.77089e+22 1.62331e+22 0)
(7.3787e+21 1.18059e+22 0)
(5.90296e+21 2.95148e+21 0)
(0 1.62331e+22 0)
(1.47574e+21 1.47574e+22 0)
(4.42722e+21 1.62331e+22 0)
(5.90296e+21 8.85444e+21 0)
(1.03302e+22 -4.42722e+21 0)
(-5.90296e+21 -5.90296e+21 0)
(-2.80391e+22 -7.3787e+21 0)
(-1.91846e+22 8.85444e+21 0)
(-2.95148e+21 1.47574e+21 0)
(1.03302e+22 0 0)
(1.47574e+22 4.42722e+21 0)
(7.3787e+21 0 0)
(2.95148e+21 0 0)
(-2.95148e+21 -2.95148e+21 0)
(2.95148e+21 -1.47574e+22 0)
(-1.03302e+22 -1.18059e+22 0)
(-2.36118e+22 -1.03302e+22 0)
(-8.85444e+21 4.42722e+21 0)
(-1.47574e+21 -4.42722e+21 0)
(8.85444e+21 -1.47574e+21 0)
(1.47574e+21 2.95148e+21 0)
(-5.90296e+21 -1.47574e+22 0)
(2.95148e+21 0 0)
(-1.03302e+22 0 0)
(0 4.42722e+21 0)
(-1.47574e+21 0 0)
(-1.18059e+22 1.32817e+22 0)
(-1.32817e+22 1.47574e+22 0)
(-7.3787e+21 1.03302e+22 0)
(1.62331e+22 5.90296e+21 0)
(1.47574e+21 2.95148e+21 0)
(-1.03302e+22 -4.42722e+21 0)
(1.47574e+21 1.77089e+22 0)
(1.47574e+21 2.21361e+22 0)
(4.42722e+21 2.80391e+22 0)
(-1.47574e+21 1.62331e+22 0)
(-8.85444e+21 2.36118e+22 0)
(-1.32817e+22 1.91846e+22 0)
(-1.03302e+22 1.91846e+22 0)
(0 1.18059e+22 0)
(-7.3787e+21 1.47574e+21 0)
(-1.32817e+22 -1.03302e+22 0)
(5.90296e+21 1.91846e+22 0)
(1.47574e+21 2.95148e+22 0)
(-5.90296e+21 2.65633e+22 0)
(-7.3787e+21 1.47574e+22 0)
(-8.85444e+21 1.32817e+22 0)
(-1.47574e+22 1.47574e+22 0)
(-1.47574e+22 1.18059e+22 0)
(-1.47574e+21 5.90296e+21 0)
(-2.06604e+22 -1.03302e+22 0)
(-2.06604e+22 -1.62331e+22 0)
(1.32817e+22 1.47574e+22 0)
(7.3787e+21 8.85444e+21 0)
(-1.03302e+22 7.3787e+21 0)
(-1.18059e+22 1.18059e+22 0)
(-1.03302e+22 2.95148e+21 0)
(-1.47574e+22 -4.42722e+21 0)
(-1.91846e+22 2.95148e+21 0)
(-2.21361e+22 -7.3787e+21 0)
(-2.95148e+22 -2.50876e+22 0)
(-1.91846e+22 -1.03302e+22 0)
(0 1.18059e+22 0)
(-5.90296e+21 0 0)
(-2.95148e+21 0 0)
(-1.47574e+22 4.42722e+21 0)
(-2.21361e+22 -2.95148e+21 0)
(-1.62331e+22 -8.85444e+21 0)
(-1.77089e+22 -4.42722e+21 0)
(-3.09905e+22 -7.3787e+21 0)
(-2.36118e+22 -1.32817e+22 0)
(-7.3787e+21 -1.47574e+21 0)
)
;

boundaryField
{
    left
    {
        type            calculated;
        value           nonuniform List<vector> 10((0 -8.85444e+21 0) (0 -2.06604e+22 0) (0 -2.95148e+21 0) (0 1.62331e+22 0) (0 0 0) (0 0 0) (0 1.77089e+22 0) (0 1.91846e+22 0) (0 1.47574e+22 0) (0 1.18059e+22 0));
    }
    right
    {
        type            calculated;
        value           nonuniform List<vector> 10((0 0 0) (0 4.42722e+21 0) (0 1.47574e+22 0) (0 0 0) (0 -1.47574e+22 0) (0 -4.42722e+21 0) (0 -1.03302e+22 0) (0 -1.62331e+22 0) (0 -1.03302e+22 0) (0 -1.47574e+21 0));
    }
    top
    {
        type            calculated;
        value           nonuniform List<vector> 10((0 0 0) (-5.90296e+21 0 0) (-2.95148e+21 0 0) (-1.47574e+22 0 0) (-2.21361e+22 0 0) (-1.62331e+22 0 0) (-1.77089e+22 0 0) (-3.09905e+22 0 0) (-2.36118e+22 0 0) (-7.3787e+21 0 0));
    }
    bottom
    {
        type            calculated;
        value           nonuniform List<vector> 10((-1.03302e+22 0 0) (-2.36118e+22 0 0) (0 0 0) (2.95148e+21 0 0) (-2.65633e+22 0 0) (-2.36118e+22 0 0) (4.42722e+21 0 0) (4.42722e+21 0 0) (5.90296e+21 0 0) (1.03302e+22 0 0));
    }
    defaultFaces
    {
        type            empty;
    }
}


// ************************************************************************* //
