/*--------------------------------*- C++ -*----------------------------------*\
| =========                 |                                                 |
| \\      /  F ield         | OpenFOAM: The Open Source CFD Toolbox           |
|  \\    /   O peration     | Version:  2406                                  |
|   \\  /    A nd           | Website:  www.openfoam.com                      |
|    \\/     M anipulation  |                                                 |
\*---------------------------------------------------------------------------*/
FoamFile
{
    version     2.0;
    format      ascii;
    arch        "LSB;label=32;scalar=64";
    class       volVectorField;
    location    "2.7";
    object      flux;
}
// * * * * * * * * * * * * * * * * * * * * * * * * * * * * * * * * * * * * * //

dimensions      [0 1 -1 1 0 0 0];

internalField   nonuniform List<vector> 
100
(
(-5.23869e-09 -5.23869e-09 0)
(-1.04774e-08 -1.16415e-09 0)
(1.74623e-09 3.49246e-09 0)
(5.23869e-09 3.49246e-09 0)
(-1.10595e-08 1.74623e-09 0)
(-9.8953e-09 0 0)
(0 2.32831e-09 0)
(0 1.16415e-09 0)
(3.49246e-09 5.82077e-10 0)
(4.65661e-09 5.82077e-10 0)
(-5.82077e-10 -1.10595e-08 0)
(-1.74623e-09 -1.16415e-09 0)
(6.40284e-09 9.8953e-09 0)
(2.91038e-09 7.567e-09 0)
(-1.5134e-08 5.82077e-10 0)
(-8.73115e-09 2.32831e-09 0)
(1.16415e-09 5.23869e-09 0)
(-1.16415e-09 4.65661e-09 0)
(2.32831e-09 8.14907e-09 0)
(4.07454e-09 2.91038e-09 0)
(4.65661e-09 0 0)
(1.04774e-08 5.82077e-10 0)
(9.31323e-09 2.91038e-09 0)
(-3.49246e-09 1.74623e-09 0)
(-1.57161e-08 1.16415e-09 0)
(-5.23869e-09 5.82077e-09 0)
(2.32831e-09 2.91038e-09 0)
(2.32831e-09 -1.74623e-09 0)
(2.32831e-09 6.98492e-09 0)
(5.82077e-10 4.65661e-09 0)
(5.82077e-10 6.98492e-09 0)
(1.16415e-09 2.32831e-09 0)
(6.98492e-09 -4.65661e-09 0)
(0 -6.40284e-09 0)
(-8.73115e-09 -3.49246e-09 0)
(-8.73115e-09 5.82077e-10 0)
(-5.82077e-09 -4.65661e-09 0)
(4.07454e-09 -2.32831e-09 0)
(6.98492e-09 0 0)
(2.32831e-09 -4.07454e-09 0)
(0 -4.07454e-09 0)
(-1.16415e-09 -2.91038e-09 0)
(3.49246e-09 -5.23869e-09 0)
(-2.91038e-09 -6.98492e-09 0)
(-1.04774e-08 -6.98492e-09 0)
(-5.82077e-09 -4.07454e-09 0)
(-5.82077e-10 -3.49246e-09 0)
(6.40284e-09 1.16415e-09 0)
(1.74623e-09 5.82077e-10 0)
(-4.07454e-09 -6.40284e-09 0)
(1.74623e-09 -5.82077e-10 0)
(-1.16415e-09 5.82077e-10 0)
(1.74623e-09 0 0)
(-1.74623e-09 0 0)
(-4.65661e-09 5.23869e-09 0)
(-5.23869e-09 6.98492e-09 0)
(-1.74623e-09 5.23869e-09 0)
(8.73115e-09 2.32831e-09 0)
(-5.82077e-10 -1.74623e-09 0)
(-5.82077e-09 -2.91038e-09 0)
(2.32831e-09 8.73115e-09 0)
(0 1.04774e-08 0)
(1.74623e-09 9.8953e-09 0)
(1.74623e-09 3.49246e-09 0)
(-2.91038e-09 6.98492e-09 0)
(-5.23869e-09 7.567e-09 0)
(-5.23869e-09 8.14907e-09 0)
(0 6.40284e-09 0)
(-3.49246e-09 0 0)
(-5.23869e-09 -4.07454e-09 0)
(2.32831e-09 1.04774e-08 0)
(0 1.28057e-08 0)
(-5.23869e-09 1.10595e-08 0)
(-2.32831e-09 5.82077e-09 0)
(-2.32831e-09 4.65661e-09 0)
(-3.49246e-09 4.65661e-09 0)
(-2.91038e-09 6.40284e-09 0)
(-1.74623e-09 4.65661e-09 0)
(-1.04774e-08 -3.49246e-09 0)
(-8.73115e-09 -8.73115e-09 0)
(4.07454e-09 6.98492e-09 0)
(1.74623e-09 5.82077e-09 0)
(-4.65661e-09 5.23869e-09 0)
(-5.23869e-09 6.40284e-09 0)
(-5.23869e-09 1.74623e-09 0)
(-3.49246e-09 0 0)
(-4.65661e-09 2.91038e-09 0)
(-8.73115e-09 -4.07454e-09 0)
(-1.62981e-08 -1.10595e-08 0)
(-1.10595e-08 -6.98492e-09 0)
(1.74623e-09 3.49246e-09 0)
(-2.91038e-09 1.16415e-09 0)
(-4.07454e-09 0 0)
(-6.98492e-09 5.82077e-10 0)
(-7.567e-09 -1.16415e-09 0)
(-2.32831e-09 -2.32831e-09 0)
(-6.40284e-09 0 0)
(-1.74623e-08 -4.07454e-09 0)
(-1.33878e-08 -7.567e-09 0)
(-4.07454e-09 -1.16415e-09 0)
)
;

boundaryField
{
    left
    {
        type            calculated;
        value           nonuniform List<vector> 10((0 -5.23869e-09 0) (0 -1.10595e-08 0) (0 0 0) (0 6.98492e-09 0) (0 -4.07454e-09 0) (0 -5.82077e-10 0) (0 8.73115e-09 0) (0 1.04774e-08 0) (0 6.98492e-09 0) (0 3.49246e-09 0));
    }
    right
    {
        type            calculated;
        value           nonuniform List<vector> 10((0 5.82077e-10 0) (0 2.91038e-09 0) (0 4.65661e-09 0) (0 -4.07454e-09 0) (0 -6.40284e-09 0) (0 -2.91038e-09 0) (0 -4.07454e-09 0) (0 -8.73115e-09 0) (0 -6.98492e-09 0) (0 -1.16415e-09 0));
    }
    top
    {
        type            calculated;
        value           nonuniform List<vector> 10((1.74623e-09 0 0) (-2.91038e-09 0 0) (-4.07454e-09 0 0) (-6.98492e-09 0 0) (-7.567e-09 0 0) (-2.32831e-09 0 0) (-6.40284e-09 0 0) (-1.74623e-08 0 0) (-1.33878e-08 0 0) (-4.07454e-09 0 0));
    }
    bottom
    {
        type            calculated;
        value           nonuniform List<vector> 10((-5.23869e-09 0 0) (-1.04774e-08 0 0) (1.74623e-09 0 0) (5.23869e-09 0 0) (-1.10595e-08 0 0) (-9.8953e-09 0 0) (0 0 0) (0 0 0) (3.49246e-09 0 0) (4.65661e-09 0 0));
    }
    defaultFaces
    {
        type            empty;
    }
}


// ************************************************************************* //
