/*--------------------------------*- C++ -*----------------------------------*\
| =========                 |                                                 |
| \\      /  F ield         | OpenFOAM: The Open Source CFD Toolbox           |
|  \\    /   O peration     | Version:  2406                                  |
|   \\  /    A nd           | Website:  www.openfoam.com                      |
|    \\/     M anipulation  |                                                 |
\*---------------------------------------------------------------------------*/
FoamFile
{
    version     2.0;
    format      ascii;
    arch        "LSB;label=32;scalar=64";
    class       volScalarField;
    location    "4.7";
    object      gradTy;
}
// * * * * * * * * * * * * * * * * * * * * * * * * * * * * * * * * * * * * * //

dimensions      [0 -1 0 1 0 0 0];

internalField   nonuniform List<scalar> 
100
(
-109.375
15.625
78.125
156.25
31.25
0
31.25
15.625
15.625
-62.5
-203.125
-15.625
250
203.125
31.25
-15.625
109.375
62.5
109.375
15.625
0
62.5
125
15.625
46.875
125
31.25
0
109.375
93.75
171.875
109.375
-78.125
-46.875
-46.875
0
-78.125
-46.875
-15.625
-31.25
-31.25
-93.75
-140.625
-125
-140.625
-46.875
-46.875
62.5
46.875
-171.875
-31.25
-15.625
0
-15.625
125
187.5
93.75
62.5
0
-93.75
171.875
218.75
187.5
156.25
234.375
171.875
156.25
46.875
15.625
-31.25
156.25
218.75
265.625
140.625
125
187.5
140.625
93.75
-31.25
-171.875
187.5
140.625
140.625
140.625
78.125
15.625
93.75
15.625
-234.375
-140.625
109.375
15.625
0
31.25
15.625
-78.125
-15.625
-46.875
-171.875
0
)
;

boundaryField
{
    left
    {
        type            calculated;
        value           nonuniform List<scalar> 10(-109.375 -203.125 0 171.875 -31.25 -31.25 171.875 156.25 187.5 109.375);
    }
    right
    {
        type            calculated;
        value           nonuniform List<scalar> 10(-62.5 15.625 93.75 -31.25 -171.875 -93.75 -31.25 -171.875 -140.625 0);
    }
    top
    {
        type            calculated;
        value           uniform 0;
    }
    bottom
    {
        type            calculated;
        value           uniform 0;
    }
    defaultFaces
    {
        type            empty;
    }
}


// ************************************************************************* //
