/*--------------------------------*- C++ -*----------------------------------*\
| =========                 |                                                 |
| \\      /  F ield         | OpenFOAM: The Open Source CFD Toolbox           |
|  \\    /   O peration     | Version:  2406                                  |
|   \\  /    A nd           | Website:  www.openfoam.com                      |
|    \\/     M anipulation  |                                                 |
\*---------------------------------------------------------------------------*/
FoamFile
{
    version     2.0;
    format      ascii;
    arch        "LSB;label=32;scalar=64";
    class       volScalarField;
    location    "0.55";
    object      gradTx;
}
// * * * * * * * * * * * * * * * * * * * * * * * * * * * * * * * * * * * * * //

dimensions      [0 -1 0 1 0 0 0];

internalField   nonuniform List<scalar> 
100
(
-3.72694e-17
-7.11508e-17
0
2.37169e-17
-4.74338e-17
-3.04932e-17
1.01644e-17
-3.38813e-18
2.37169e-17
3.38813e-17
-1.69407e-17
-4.06576e-17
5.0822e-17
2.37169e-17
-8.13152e-17
-3.38813e-17
2.03288e-17
-1.35525e-17
1.01644e-17
3.04932e-17
2.03288e-17
5.0822e-17
7.11508e-17
-6.77626e-18
-9.48677e-17
-2.03288e-17
3.04932e-17
3.38813e-18
-6.77626e-18
-1.01644e-17
1.01644e-17
2.71051e-17
4.74338e-17
-6.77626e-18
-5.0822e-17
-4.06576e-17
-2.37169e-17
0
3.38813e-17
2.03288e-17
6.77626e-18
-1.01644e-17
2.37169e-17
-2.71051e-17
-6.09864e-17
-1.69407e-17
6.77626e-18
2.71051e-17
-1.01644e-17
-2.37169e-17
6.77626e-18
-2.03288e-17
6.77626e-18
-3.38813e-18
-1.69407e-17
-6.77626e-18
-1.35525e-17
4.74338e-17
0
-2.71051e-17
2.03288e-17
-6.77626e-18
3.38813e-18
1.69407e-17
-3.38813e-18
-1.35525e-17
-2.37169e-17
1.35525e-17
0
-2.37169e-17
1.35525e-17
1.01644e-17
-3.04932e-17
-2.37169e-17
1.69407e-17
-6.77626e-18
-1.69407e-17
2.37169e-17
-3.04932e-17
-5.42101e-17
3.04932e-17
1.01644e-17
-2.37169e-17
-2.37169e-17
-1.01644e-17
3.38813e-18
0
-1.69407e-17
-7.45389e-17
-5.0822e-17
-3.38813e-18
-2.37169e-17
-1.69407e-17
-2.03288e-17
-3.04932e-17
0
3.38813e-18
-6.09864e-17
-4.74338e-17
-1.01644e-17
)
;

boundaryField
{
    left
    {
        type            calculated;
        value           uniform 0;
    }
    right
    {
        type            calculated;
        value           uniform 0;
    }
    top
    {
        type            calculated;
        value           nonuniform List<scalar> 10(-3.38813e-18 -2.37169e-17 -1.69407e-17 -2.03288e-17 -3.04932e-17 0 3.38813e-18 -6.09864e-17 -4.74338e-17 -1.01644e-17);
    }
    bottom
    {
        type            calculated;
        value           nonuniform List<scalar> 10(-3.72694e-17 -7.11508e-17 0 2.37169e-17 -4.74338e-17 -3.04932e-17 1.01644e-17 -3.38813e-18 2.37169e-17 3.38813e-17);
    }
    defaultFaces
    {
        type            empty;
    }
}


// ************************************************************************* //
