/*--------------------------------*- C++ -*----------------------------------*\
| =========                 |                                                 |
| \\      /  F ield         | OpenFOAM: The Open Source CFD Toolbox           |
|  \\    /   O peration     | Version:  2406                                  |
|   \\  /    A nd           | Website:  www.openfoam.com                      |
|    \\/     M anipulation  |                                                 |
\*---------------------------------------------------------------------------*/
FoamFile
{
    version     2.0;
    format      ascii;
    arch        "LSB;label=32;scalar=64";
    class       volScalarField;
    location    "5.45";
    object      gradTy;
}
// * * * * * * * * * * * * * * * * * * * * * * * * * * * * * * * * * * * * * //

dimensions      [0 -1 0 1 0 0 0];

internalField   nonuniform List<scalar> 
100
(
-224000
32000
128000
224000
128000
-32000
0
32000
32000
0
-512000
0
448000
448000
128000
128000
224000
192000
320000
128000
-32000
0
192000
0
96000
352000
160000
0
256000
288000
288000
128000
-192000
-320000
-128000
160000
-64000
-96000
96000
-160000
-32000
-64000
-288000
-288000
-288000
-64000
-32000
32000
64000
-288000
0
96000
0
0
192000
256000
160000
96000
-128000
-192000
448000
576000
672000
288000
416000
352000
384000
256000
-128000
-256000
512000
672000
672000
320000
192000
288000
320000
192000
-96000
-480000
256000
160000
224000
288000
96000
-160000
0
-160000
-576000
-192000
128000
0
-96000
160000
32000
-256000
-160000
-160000
-384000
-32000
)
;

boundaryField
{
    left
    {
        type            calculated;
        value           nonuniform List<scalar> 10(-224000 -512000 -32000 288000 -32000 0 448000 512000 256000 128000);
    }
    right
    {
        type            calculated;
        value           nonuniform List<scalar> 10(0 128000 288000 -160000 -288000 -192000 -256000 -480000 -192000 -32000);
    }
    top
    {
        type            calculated;
        value           uniform 0;
    }
    bottom
    {
        type            calculated;
        value           uniform 0;
    }
    defaultFaces
    {
        type            empty;
    }
}


// ************************************************************************* //
