/*--------------------------------*- C++ -*----------------------------------*\
| =========                 |                                                 |
| \\      /  F ield         | OpenFOAM: The Open Source CFD Toolbox           |
|  \\    /   O peration     | Version:  2406                                  |
|   \\  /    A nd           | Website:  www.openfoam.com                      |
|    \\/     M anipulation  |                                                 |
\*---------------------------------------------------------------------------*/
FoamFile
{
    version     2.0;
    format      ascii;
    arch        "LSB;label=32;scalar=64";
    class       volScalarField;
    location    "3.6";
    object      gradTx;
}
// * * * * * * * * * * * * * * * * * * * * * * * * * * * * * * * * * * * * * //

dimensions      [0 -1 0 1 0 0 0];

internalField   nonuniform List<scalar> 
100
(
-0.00190735
-0.00333786
0
0.000953674
-0.0026226
-0.00214577
0
0.000238419
0.000715256
0.000476837
-0.000476837
-0.000953674
0.00119209
0.000238419
-0.00357628
-0.00190735
0.000476837
0
0.000476837
0.000715256
0.000715256
0.00238419
0.00286102
-0.000953674
-0.00452995
-0.00119209
0.000476837
0.000238419
0.000238419
-0.000238419
0.000715256
0.00119209
0.00166893
-0.000715256
-0.0026226
-0.00190735
-0.00143051
0.000238419
0.00143051
0.000953674
-0.000476837
-0.000238419
0.00119209
-0.00119209
-0.00309944
-0.00119209
0
0.00166893
0
-0.00119209
0.000476837
-0.000476837
0.000476837
-0.000476837
-0.00143051
-0.000715256
-0.000476837
0.00143051
-0.000238419
-0.00119209
0.000476837
0
0.000238419
0
-0.000953674
-0.00119209
-0.00143051
-0.000238419
-0.000953674
-0.00166893
0.000715256
0.000238419
-0.000953674
-0.00119209
-0.000953674
-0.00119209
-0.00214577
-0.000715256
-0.00286102
-0.00238419
0.00119209
0.000953674
-0.00119209
-0.00214577
-0.00143051
-0.00119209
-0.00190735
-0.00286102
-0.00452995
-0.00214577
0.000238419
-0.000715256
-0.000715256
-0.00190735
-0.00286102
-0.00143051
-0.00166893
-0.00452995
-0.00333786
-0.000476837
)
;

boundaryField
{
    left
    {
        type            calculated;
        value           uniform 0;
    }
    right
    {
        type            calculated;
        value           uniform 0;
    }
    top
    {
        type            calculated;
        value           nonuniform List<scalar> 10(0.000238419 -0.000715256 -0.000715256 -0.00190735 -0.00286102 -0.00143051 -0.00166893 -0.00452995 -0.00333786 -0.000476837);
    }
    bottom
    {
        type            calculated;
        value           nonuniform List<scalar> 10(-0.00190735 -0.00333786 0 0.000953674 -0.0026226 -0.00214577 0 0.000238419 0.000715256 0.000476837);
    }
    defaultFaces
    {
        type            empty;
    }
}


// ************************************************************************* //
