/*--------------------------------*- C++ -*----------------------------------*\
| =========                 |                                                 |
| \\      /  F ield         | OpenFOAM: The Open Source CFD Toolbox           |
|  \\    /   O peration     | Version:  2406                                  |
|   \\  /    A nd           | Website:  www.openfoam.com                      |
|    \\/     M anipulation  |                                                 |
\*---------------------------------------------------------------------------*/
FoamFile
{
    version     2.0;
    format      ascii;
    arch        "LSB;label=32;scalar=64";
    class       volScalarField;
    location    "4.85";
    object      gradTx;
}
// * * * * * * * * * * * * * * * * * * * * * * * * * * * * * * * * * * * * * //

dimensions      [0 -1 0 1 0 0 0];

internalField   nonuniform List<scalar> 
100
(
-500
-937.5
0
312.5
-1125
-937.5
125
62.5
375
375
-250
-437.5
687.5
125
-1812.5
-1062.5
375
187.5
250
375
437.5
875
875
-437.5
-1875
-812.5
375
250
62.5
187.5
187.5
562.5
625
-312.5
-1375
-1062.5
-312.5
312.5
562.5
312.5
-125
-125
375
-437.5
-1312.5
-687.5
-187.5
562.5
250
-312.5
125
-250
125
-125
-625
-687.5
-312.5
750
-125
-375
125
-187.5
62.5
-62.5
-500
-375
-375
-250
-625
-562.5
250
62.5
-187.5
-687.5
-562.5
-562.5
-437.5
-187.5
-1125
-937.5
500
375
-375
-875
-875
-562.5
-562.5
-1000
-1687.5
-1125
187.5
-187.5
-312.5
-625
-1187.5
-750
-562.5
-1687.5
-1437.5
-375
)
;

boundaryField
{
    left
    {
        type            calculated;
        value           uniform 0;
    }
    right
    {
        type            calculated;
        value           uniform 0;
    }
    top
    {
        type            calculated;
        value           nonuniform List<scalar> 10(187.5 -187.5 -312.5 -625 -1187.5 -750 -562.5 -1687.5 -1437.5 -375);
    }
    bottom
    {
        type            calculated;
        value           nonuniform List<scalar> 10(-500 -937.5 0 312.5 -1125 -937.5 125 62.5 375 375);
    }
    defaultFaces
    {
        type            empty;
    }
}


// ************************************************************************* //
