/*--------------------------------*- C++ -*----------------------------------*\
| =========                 |                                                 |
| \\      /  F ield         | OpenFOAM: The Open Source CFD Toolbox           |
|  \\    /   O peration     | Version:  2406                                  |
|   \\  /    A nd           | Website:  www.openfoam.com                      |
|    \\/     M anipulation  |                                                 |
\*---------------------------------------------------------------------------*/
FoamFile
{
    version     2.0;
    format      ascii;
    arch        "LSB;label=32;scalar=64";
    class       volVectorField;
    location    "5.15";
    object      flux;
}
// * * * * * * * * * * * * * * * * * * * * * * * * * * * * * * * * * * * * * //

dimensions      [0 1 -1 1 0 0 0];

internalField   nonuniform List<vector> 
100
(
(-400 -360 0)
(-880 0 0)
(-80 160 0)
(320 440 0)
(-720 40 0)
(-840 -40 0)
(-80 40 0)
(120 160 0)
(360 120 0)
(360 80 0)
(-40 -680 0)
(-360 -200 0)
(360 760 0)
(200 840 0)
(-1160 120 0)
(-840 160 0)
(120 320 0)
(160 320 0)
(240 560 0)
(280 200 0)
(120 40 0)
(600 160 0)
(920 760 0)
(-360 280 0)
(-1400 160 0)
(-640 600 0)
(120 360 0)
(360 80 0)
(280 520 0)
(0 280 0)
(40 640 0)
(400 400 0)
(480 -160 0)
(-440 -360 0)
(-800 -280 0)
(-680 120 0)
(-400 -40 0)
(360 -40 0)
(440 80 0)
(120 -160 0)
(-120 -200 0)
(-160 -120 0)
(240 -640 0)
(-520 -640 0)
(-1000 -560 0)
(-400 -320 0)
(-80 -160 0)
(520 0 0)
(160 -40 0)
(-240 -560 0)
(120 0 0)
(-160 200 0)
(-40 0 0)
(-320 -80 0)
(-440 440 0)
(-240 560 0)
(-120 480 0)
(440 240 0)
(-80 -200 0)
(-480 -400 0)
(120 800 0)
(-280 880 0)
(0 800 0)
(-40 560 0)
(-400 800 0)
(-360 720 0)
(-320 480 0)
(-200 480 0)
(-440 -40 0)
(-480 -400 0)
(160 760 0)
(-40 1000 0)
(-440 1160 0)
(-240 640 0)
(-240 680 0)
(-560 520 0)
(-480 440 0)
(-200 160 0)
(-920 -280 0)
(-760 -680 0)
(360 640 0)
(200 600 0)
(-360 520 0)
(-640 520 0)
(-560 200 0)
(-520 -80 0)
(-600 200 0)
(-840 -280 0)
(-1320 -1080 0)
(-840 -360 0)
(160 320 0)
(-280 80 0)
(-440 -160 0)
(-520 40 0)
(-800 0 0)
(-640 -240 0)
(-640 -120 0)
(-1520 -240 0)
(-1000 -720 0)
(-160 -40 0)
)
;

boundaryField
{
    left
    {
        type            calculated;
        value           nonuniform List<vector> 10((0 -360 0) (0 -680 0) (0 40 0) (0 640 0) (0 -200 0) (0 0 0) (0 800 0) (0 760 0) (0 640 0) (0 320 0));
    }
    right
    {
        type            calculated;
        value           nonuniform List<vector> 10((0 80 0) (0 200 0) (0 280 0) (0 -160 0) (0 -560 0) (0 -400 0) (0 -400 0) (0 -680 0) (0 -360 0) (0 -40 0));
    }
    top
    {
        type            calculated;
        value           nonuniform List<vector> 10((160 0 0) (-280 0 0) (-440 0 0) (-520 0 0) (-800 0 0) (-640 0 0) (-640 0 0) (-1520 0 0) (-1000 0 0) (-160 0 0));
    }
    bottom
    {
        type            calculated;
        value           nonuniform List<vector> 10((-400 0 0) (-880 0 0) (-80 0 0) (320 0 0) (-720 0 0) (-840 0 0) (-80 0 0) (120 0 0) (360 0 0) (360 0 0));
    }
    defaultFaces
    {
        type            empty;
    }
}


// ************************************************************************* //
