/*--------------------------------*- C++ -*----------------------------------*\
| =========                 |                                                 |
| \\      /  F ield         | OpenFOAM: The Open Source CFD Toolbox           |
|  \\    /   O peration     | Version:  2406                                  |
|   \\  /    A nd           | Website:  www.openfoam.com                      |
|    \\/     M anipulation  |                                                 |
\*---------------------------------------------------------------------------*/
FoamFile
{
    version     2.0;
    format      ascii;
    arch        "LSB;label=32;scalar=64";
    class       volScalarField;
    location    "5.15";
    object      gradTx;
}
// * * * * * * * * * * * * * * * * * * * * * * * * * * * * * * * * * * * * * //

dimensions      [0 -1 0 1 0 0 0];

internalField   nonuniform List<scalar> 
100
(
-10000
-22000
-2000
8000
-18000
-21000
-2000
3000
9000
9000
-1000
-9000
9000
5000
-29000
-21000
3000
4000
6000
7000
3000
15000
23000
-9000
-35000
-16000
3000
9000
7000
0
1000
10000
12000
-11000
-20000
-17000
-10000
9000
11000
3000
-3000
-4000
6000
-13000
-25000
-10000
-2000
13000
4000
-6000
3000
-4000
-1000
-8000
-11000
-6000
-3000
11000
-2000
-12000
3000
-7000
0
-1000
-10000
-9000
-8000
-5000
-11000
-12000
4000
-1000
-11000
-6000
-6000
-14000
-12000
-5000
-23000
-19000
9000
5000
-9000
-16000
-14000
-13000
-15000
-21000
-33000
-21000
4000
-7000
-11000
-13000
-20000
-16000
-16000
-38000
-25000
-4000
)
;

boundaryField
{
    left
    {
        type            calculated;
        value           uniform 0;
    }
    right
    {
        type            calculated;
        value           uniform 0;
    }
    top
    {
        type            calculated;
        value           nonuniform List<scalar> 10(4000 -7000 -11000 -13000 -20000 -16000 -16000 -38000 -25000 -4000);
    }
    bottom
    {
        type            calculated;
        value           nonuniform List<scalar> 10(-10000 -22000 -2000 8000 -18000 -21000 -2000 3000 9000 9000);
    }
    defaultFaces
    {
        type            empty;
    }
}


// ************************************************************************* //
