/*--------------------------------*- C++ -*----------------------------------*\
| =========                 |                                                 |
| \\      /  F ield         | OpenFOAM: The Open Source CFD Toolbox           |
|  \\    /   O peration     | Version:  2406                                  |
|   \\  /    A nd           | Website:  www.openfoam.com                      |
|    \\/     M anipulation  |                                                 |
\*---------------------------------------------------------------------------*/
FoamFile
{
    version     2.0;
    format      ascii;
    arch        "LSB;label=32;scalar=64";
    class       volScalarField;
    location    "5.5";
    object      gradTx;
}
// * * * * * * * * * * * * * * * * * * * * * * * * * * * * * * * * * * * * * //

dimensions      [0 -1 0 1 0 0 0];

internalField   nonuniform List<scalar> 
100
(
-512000
-832000
128000
192000
-960000
-704000
320000
192000
192000
320000
0
-256000
448000
128000
-1.408e+06
-832000
448000
192000
192000
320000
384000
832000
832000
-512000
-1.408e+06
-448000
192000
320000
128000
64000
0
256000
384000
-64000
-768000
-704000
-256000
384000
768000
384000
-64000
-256000
192000
-64000
-704000
-448000
0
448000
0
-320000
128000
-256000
-64000
-128000
-256000
-256000
-256000
576000
128000
-320000
320000
-128000
-128000
64000
-320000
-192000
-192000
-128000
-320000
-448000
256000
64000
-576000
-512000
-192000
-320000
-192000
-192000
-960000
-832000
320000
192000
-512000
-768000
-320000
-320000
-384000
-768000
-1.408e+06
-896000
128000
-64000
-320000
-704000
-896000
-512000
-384000
-1.28e+06
-1.088e+06
-256000
)
;

boundaryField
{
    left
    {
        type            calculated;
        value           uniform 0;
    }
    right
    {
        type            calculated;
        value           uniform 0;
    }
    top
    {
        type            calculated;
        value           nonuniform List<scalar> 10(128000 -64000 -320000 -704000 -896000 -512000 -384000 -1.28e+06 -1.088e+06 -256000);
    }
    bottom
    {
        type            calculated;
        value           nonuniform List<scalar> 10(-512000 -832000 128000 192000 -960000 -704000 320000 192000 192000 320000);
    }
    defaultFaces
    {
        type            empty;
    }
}


// ************************************************************************* //
