/*--------------------------------*- C++ -*----------------------------------*\
| =========                 |                                                 |
| \\      /  F ield         | OpenFOAM: The Open Source CFD Toolbox           |
|  \\    /   O peration     | Version:  2406                                  |
|   \\  /    A nd           | Website:  www.openfoam.com                      |
|    \\/     M anipulation  |                                                 |
\*---------------------------------------------------------------------------*/
FoamFile
{
    version     2.0;
    format      ascii;
    arch        "LSB;label=32;scalar=64";
    class       volScalarField;
    location    "8.6";
    object      gradTy;
}
// * * * * * * * * * * * * * * * * * * * * * * * * * * * * * * * * * * * * * //

dimensions      [0 -1 0 1 0 0 0];

internalField   nonuniform List<scalar> 
100
(
-3.15252e+19
-4.5036e+18
9.0072e+18
2.2518e+19
1.35108e+19
-9.0072e+18
9.0072e+18
1.35108e+19
4.5036e+18
4.5036e+18
-5.85468e+19
-9.0072e+18
4.95396e+19
5.40432e+19
1.80144e+19
0
2.2518e+19
1.80144e+19
2.70216e+19
9.0072e+18
-4.5036e+18
1.35108e+19
3.15252e+19
2.2518e+19
1.80144e+19
3.15252e+19
1.80144e+19
0
2.70216e+19
2.2518e+19
3.15252e+19
1.80144e+19
-1.80144e+19
-1.80144e+19
-1.80144e+19
9.0072e+18
-1.35108e+19
-1.80144e+19
0
-1.35108e+19
0
-1.35108e+19
-3.60288e+19
-4.05324e+19
-3.15252e+19
-9.0072e+18
-1.35108e+19
4.5036e+18
1.35108e+19
-2.70216e+19
0
1.35108e+19
4.5036e+18
0
3.15252e+19
4.05324e+19
2.2518e+19
9.0072e+18
0
-4.5036e+18
3.60288e+19
5.40432e+19
7.20576e+19
4.5036e+19
5.85468e+19
4.05324e+19
4.05324e+19
2.70216e+19
4.5036e+18
-1.35108e+19
4.05324e+19
5.85468e+19
7.65612e+19
4.05324e+19
3.60288e+19
4.5036e+19
4.05324e+19
4.05324e+19
-9.0072e+18
-4.05324e+19
4.5036e+19
2.2518e+19
2.70216e+19
3.15252e+19
1.80144e+19
4.5036e+18
2.70216e+19
4.5036e+18
-6.30504e+19
-3.60288e+19
2.2518e+19
0
-4.5036e+18
9.0072e+18
0
-1.35108e+19
-4.5036e+18
-1.35108e+19
-4.5036e+19
0
)
;

boundaryField
{
    left
    {
        type            calculated;
        value           nonuniform List<scalar> 10(-3.15252e+19 -5.85468e+19 -4.5036e+18 3.15252e+19 0 0 3.60288e+19 4.05324e+19 4.5036e+19 2.2518e+19);
    }
    right
    {
        type            calculated;
        value           nonuniform List<scalar> 10(4.5036e+18 9.0072e+18 2.2518e+19 -1.35108e+19 -2.70216e+19 -4.5036e+18 -1.35108e+19 -4.05324e+19 -3.60288e+19 0);
    }
    top
    {
        type            calculated;
        value           uniform 0;
    }
    bottom
    {
        type            calculated;
        value           uniform 0;
    }
    defaultFaces
    {
        type            empty;
    }
}


// ************************************************************************* //
