/*--------------------------------*- C++ -*----------------------------------*\
| =========                 |                                                 |
| \\      /  F ield         | OpenFOAM: The Open Source CFD Toolbox           |
|  \\    /   O peration     | Version:  2406                                  |
|   \\  /    A nd           | Website:  www.openfoam.com                      |
|    \\/     M anipulation  |                                                 |
\*---------------------------------------------------------------------------*/
FoamFile
{
    version     2.0;
    format      ascii;
    arch        "LSB;label=32;scalar=64";
    class       volScalarField;
    location    "8.8";
    object      gradTx;
}
// * * * * * * * * * * * * * * * * * * * * * * * * * * * * * * * * * * * * * //

dimensions      [0 -1 0 1 0 0 0];

internalField   nonuniform List<scalar> 
100
(
-2.34187e+20
-4.5036e+20
-1.26101e+20
3.60288e+19
-3.42274e+20
-3.06245e+20
1.80144e+19
0
1.26101e+20
1.26101e+20
-1.80144e+19
-1.44115e+20
1.6213e+20
0
-5.76461e+20
-2.52202e+20
9.0072e+19
-9.0072e+19
5.40432e+19
1.26101e+20
1.08086e+20
3.24259e+20
3.96317e+20
-2.34187e+20
-6.66533e+20
-2.52202e+20
5.40432e+19
5.40432e+19
1.80144e+19
0
3.60288e+19
1.6213e+20
2.34187e+20
-1.44115e+20
-4.14331e+20
-2.52202e+20
-1.08086e+20
9.0072e+19
1.6213e+20
1.80144e+19
5.40432e+19
-1.80144e+19
9.0072e+19
-1.98158e+20
-4.14331e+20
-1.98158e+20
0
1.98158e+20
-3.60288e+19
-2.34187e+20
7.20576e+19
-9.0072e+19
7.20576e+19
-3.60288e+19
-2.70216e+20
-2.34187e+20
-1.44115e+20
2.8823e+20
1.80144e+19
-1.80144e+20
9.0072e+19
-3.60288e+19
3.60288e+19
5.40432e+19
-2.52202e+20
-2.52202e+20
-1.6213e+20
-3.60288e+19
-1.26101e+20
-2.16173e+20
5.40432e+19
1.80144e+19
-1.08086e+20
-1.98158e+20
-2.16173e+20
-2.8823e+20
-2.34187e+20
-3.60288e+19
-3.42274e+20
-3.24259e+20
1.6213e+20
1.44115e+20
-1.08086e+20
-3.60288e+20
-2.70216e+20
-2.34187e+20
-2.52202e+20
-4.14331e+20
-6.84547e+20
-3.96317e+20
7.20576e+19
-5.40432e+19
-1.08086e+20
-2.16173e+20
-3.96317e+20
-2.70216e+20
-3.42274e+20
-7.3859e+20
-5.76461e+20
-1.44115e+20
)
;

boundaryField
{
    left
    {
        type            calculated;
        value           uniform 0;
    }
    right
    {
        type            calculated;
        value           uniform 0;
    }
    top
    {
        type            calculated;
        value           nonuniform List<scalar> 10(7.20576e+19 -5.40432e+19 -1.08086e+20 -2.16173e+20 -3.96317e+20 -2.70216e+20 -3.42274e+20 -7.3859e+20 -5.76461e+20 -1.44115e+20);
    }
    bottom
    {
        type            calculated;
        value           nonuniform List<scalar> 10(-2.34187e+20 -4.5036e+20 -1.26101e+20 3.60288e+19 -3.42274e+20 -3.06245e+20 1.80144e+19 0 1.26101e+20 1.26101e+20);
    }
    defaultFaces
    {
        type            empty;
    }
}


// ************************************************************************* //
