/*--------------------------------*- C++ -*----------------------------------*\
| =========                 |                                                 |
| \\      /  F ield         | OpenFOAM: The Open Source CFD Toolbox           |
|  \\    /   O peration     | Version:  2406                                  |
|   \\  /    A nd           | Website:  www.openfoam.com                      |
|    \\/     M anipulation  |                                                 |
\*---------------------------------------------------------------------------*/
FoamFile
{
    version     2.0;
    format      ascii;
    arch        "LSB;label=32;scalar=64";
    class       volScalarField;
    location    "7.95";
    object      gradTx;
}
// * * * * * * * * * * * * * * * * * * * * * * * * * * * * * * * * * * * * * //

dimensions      [0 -1 0 1 0 0 0];

internalField   nonuniform List<scalar> 
100
(
-3.51844e+16
-6.15727e+16
0
1.31941e+16
-7.03687e+16
-5.27766e+16
4.39805e+15
0
1.75922e+16
2.63883e+16
-1.31941e+16
-4.39805e+15
3.07863e+16
0
-1.05553e+17
-6.15727e+16
1.75922e+16
0
8.79609e+15
2.63883e+16
2.19902e+16
4.83785e+16
6.15727e+16
-3.07863e+16
-1.23145e+17
-4.83785e+16
1.31941e+16
8.79609e+15
4.39805e+15
1.31941e+16
1.31941e+16
1.31941e+16
3.07863e+16
-1.75922e+16
-7.47668e+16
-6.15727e+16
-3.07863e+16
1.31941e+16
3.07863e+16
4.39805e+15
-8.79609e+15
-2.19902e+16
4.39805e+15
-3.51844e+16
-7.03687e+16
-5.27766e+16
-4.39805e+15
4.39805e+16
-4.39805e+15
-3.51844e+16
4.39805e+15
-2.63883e+16
-8.79609e+15
-8.79609e+15
-3.51844e+16
-3.51844e+16
-2.63883e+16
4.39805e+16
0
-3.51844e+16
4.39805e+15
-1.31941e+16
8.79609e+15
4.39805e+15
-2.19902e+16
-3.51844e+16
-3.07863e+16
-1.31941e+16
-3.51844e+16
-3.95824e+16
8.79609e+15
-8.79609e+15
-2.19902e+16
-2.19902e+16
-1.75922e+16
-3.95824e+16
-3.95824e+16
-1.31941e+16
-6.15727e+16
-6.59707e+16
3.51844e+16
2.19902e+16
-2.19902e+16
-5.27766e+16
-2.63883e+16
-2.19902e+16
-4.83785e+16
-6.59707e+16
-1.09951e+17
-7.47668e+16
0
-2.19902e+16
-1.31941e+16
-2.19902e+16
-4.83785e+16
-3.51844e+16
-4.39805e+16
-1.14349e+17
-9.2359e+16
-3.07863e+16
)
;

boundaryField
{
    left
    {
        type            calculated;
        value           uniform 0;
    }
    right
    {
        type            calculated;
        value           uniform 0;
    }
    top
    {
        type            calculated;
        value           nonuniform List<scalar> 10(0 -2.19902e+16 -1.31941e+16 -2.19902e+16 -4.83785e+16 -3.51844e+16 -4.39805e+16 -1.14349e+17 -9.2359e+16 -3.07863e+16);
    }
    bottom
    {
        type            calculated;
        value           nonuniform List<scalar> 10(-3.51844e+16 -6.15727e+16 0 1.31941e+16 -7.03687e+16 -5.27766e+16 4.39805e+15 0 1.75922e+16 2.63883e+16);
    }
    defaultFaces
    {
        type            empty;
    }
}


// ************************************************************************* //
