/*--------------------------------*- C++ -*----------------------------------*\
| =========                 |                                                 |
| \\      /  F ield         | OpenFOAM: The Open Source CFD Toolbox           |
|  \\    /   O peration     | Version:  2406                                  |
|   \\  /    A nd           | Website:  www.openfoam.com                      |
|    \\/     M anipulation  |                                                 |
\*---------------------------------------------------------------------------*/
FoamFile
{
    version     2.0;
    format      ascii;
    arch        "LSB;label=32;scalar=64";
    class       volVectorField;
    location    "5.35";
    object      flux;
}
// * * * * * * * * * * * * * * * * * * * * * * * * * * * * * * * * * * * * * //

dimensions      [0 1 -1 1 0 0 0];

internalField   nonuniform List<vector> 
100
(
(-3520 -2240 0)
(-5760 320 0)
(960 1600 0)
(1600 3520 0)
(-7360 960 0)
(-6720 -320 0)
(1280 320 0)
(960 960 0)
(2880 640 0)
(3520 -640 0)
(-640 -5760 0)
(-1920 0 0)
(4160 5120 0)
(960 5120 0)
(-10560 640 0)
(-8000 1600 0)
(2560 1920 0)
(1280 1920 0)
(640 5120 0)
(2560 640 0)
(1920 0 0)
(5440 1600 0)
(5760 3520 0)
(-3200 320 0)
(-11200 640 0)
(-4480 4800 0)
(1280 3520 0)
(3520 -320 0)
(1600 4480 0)
(-320 3840 0)
(1280 4480 0)
(2240 2240 0)
(2240 -2240 0)
(-1600 -3520 0)
(-6080 -1600 0)
(-4800 1280 0)
(-3520 -960 0)
(2880 -1280 0)
(5120 1600 0)
(1600 -960 0)
(-320 -960 0)
(-1600 -1280 0)
(640 -3520 0)
(-2880 -4480 0)
(-6400 -4160 0)
(-4160 -1600 0)
(-320 -1920 0)
(5760 1600 0)
(1600 1280 0)
(-2880 -3520 0)
(960 640 0)
(-1920 640 0)
(-960 640 0)
(-1920 0 0)
(-2240 3840 0)
(-3200 5440 0)
(-960 4480 0)
(6400 1280 0)
(0 -3520 0)
(-3520 -2880 0)
(320 6400 0)
(-320 7360 0)
(-320 7360 0)
(-320 4800 0)
(-1920 6080 0)
(-2880 5760 0)
(-3520 5760 0)
(-1920 4160 0)
(-2240 -1600 0)
(-2560 -3840 0)
(960 7040 0)
(-1280 8640 0)
(-3200 8320 0)
(-2560 4160 0)
(-1600 3200 0)
(-3520 2240 0)
(-2880 3200 0)
(-1600 2560 0)
(-8000 -1920 0)
(-5760 -5760 0)
(2880 3520 0)
(640 4480 0)
(-5120 2560 0)
(-5120 3200 0)
(-3840 960 0)
(-2880 -1600 0)
(-3200 320 0)
(-7040 -3520 0)
(-10560 -8640 0)
(-5760 -3200 0)
(1600 1280 0)
(-1920 640 0)
(-4160 -1920 0)
(-4480 1600 0)
(-6400 -320 0)
(-4160 -1920 0)
(-4160 -1600 0)
(-10560 -2240 0)
(-8000 -4800 0)
(-640 0 0)
)
;

boundaryField
{
    left
    {
        type            calculated;
        value           nonuniform List<vector> 10((0 -2240 0) (0 -5760 0) (0 0 0) (0 4480 0) (0 -960 0) (0 640 0) (0 6400 0) (0 7040 0) (0 3520 0) (0 1280 0));
    }
    right
    {
        type            calculated;
        value           nonuniform List<vector> 10((0 -640 0) (0 640 0) (0 3840 0) (0 -960 0) (0 -3520 0) (0 -2880 0) (0 -3840 0) (0 -5760 0) (0 -3200 0) (0 0 0));
    }
    top
    {
        type            calculated;
        value           nonuniform List<vector> 10((1600 0 0) (-1920 0 0) (-4160 0 0) (-4480 0 0) (-6400 0 0) (-4160 0 0) (-4160 0 0) (-10560 0 0) (-8000 0 0) (-640 0 0));
    }
    bottom
    {
        type            calculated;
        value           nonuniform List<vector> 10((-3520 0 0) (-5760 0 0) (960 0 0) (1600 0 0) (-7360 0 0) (-6720 0 0) (1280 0 0) (960 0 0) (2880 0 0) (3520 0 0));
    }
    defaultFaces
    {
        type            empty;
    }
}


// ************************************************************************* //
