/*--------------------------------*- C++ -*----------------------------------*\
| =========                 |                                                 |
| \\      /  F ield         | OpenFOAM: The Open Source CFD Toolbox           |
|  \\    /   O peration     | Version:  2406                                  |
|   \\  /    A nd           | Website:  www.openfoam.com                      |
|    \\/     M anipulation  |                                                 |
\*---------------------------------------------------------------------------*/
FoamFile
{
    version     2.0;
    format      ascii;
    arch        "LSB;label=32;scalar=64";
    class       volScalarField;
    location    "5.35";
    object      gradTx;
}
// * * * * * * * * * * * * * * * * * * * * * * * * * * * * * * * * * * * * * //

dimensions      [0 -1 0 1 0 0 0];

internalField   nonuniform List<scalar> 
100
(
-88000
-144000
24000
40000
-184000
-168000
32000
24000
72000
88000
-16000
-48000
104000
24000
-264000
-200000
64000
32000
16000
64000
48000
136000
144000
-80000
-280000
-112000
32000
88000
40000
-8000
32000
56000
56000
-40000
-152000
-120000
-88000
72000
128000
40000
-8000
-40000
16000
-72000
-160000
-104000
-8000
144000
40000
-72000
24000
-48000
-24000
-48000
-56000
-80000
-24000
160000
0
-88000
8000
-8000
-8000
-8000
-48000
-72000
-88000
-48000
-56000
-64000
24000
-32000
-80000
-64000
-40000
-88000
-72000
-40000
-200000
-144000
72000
16000
-128000
-128000
-96000
-72000
-80000
-176000
-264000
-144000
40000
-48000
-104000
-112000
-160000
-104000
-104000
-264000
-200000
-16000
)
;

boundaryField
{
    left
    {
        type            calculated;
        value           uniform 0;
    }
    right
    {
        type            calculated;
        value           uniform 0;
    }
    top
    {
        type            calculated;
        value           nonuniform List<scalar> 10(40000 -48000 -104000 -112000 -160000 -104000 -104000 -264000 -200000 -16000);
    }
    bottom
    {
        type            calculated;
        value           nonuniform List<scalar> 10(-88000 -144000 24000 40000 -184000 -168000 32000 24000 72000 88000);
    }
    defaultFaces
    {
        type            empty;
    }
}


// ************************************************************************* //
