/*--------------------------------*- C++ -*----------------------------------*\
| =========                 |                                                 |
| \\      /  F ield         | OpenFOAM: The Open Source CFD Toolbox           |
|  \\    /   O peration     | Version:  2406                                  |
|   \\  /    A nd           | Website:  www.openfoam.com                      |
|    \\/     M anipulation  |                                                 |
\*---------------------------------------------------------------------------*/
FoamFile
{
    version     2.0;
    format      ascii;
    arch        "LSB;label=32;scalar=64";
    class       volVectorField;
    location    "8.1";
    object      flux;
}
// * * * * * * * * * * * * * * * * * * * * * * * * * * * * * * * * * * * * * //

dimensions      [0 1 -1 1 0 0 0];

internalField   nonuniform List<vector> 
100
(
(-8.44425e+15 -7.74056e+15 0)
(-1.33701e+16 0 0)
(-2.81475e+15 2.81475e+15 0)
(2.11106e+15 8.44425e+15 0)
(-9.85162e+15 1.40737e+15 0)
(-1.05553e+16 -2.11106e+15 0)
(1.40737e+15 2.11106e+15 0)
(-1.40737e+15 2.11106e+15 0)
(4.92581e+15 7.03687e+14 0)
(6.33319e+15 -2.11106e+15 0)
(0 -1.1259e+16 0)
(-2.81475e+15 -7.03687e+14 0)
(5.6295e+15 1.26664e+16 0)
(0 1.26664e+16 0)
(-1.97032e+16 2.11106e+15 0)
(-1.05553e+16 0 0)
(4.22212e+15 2.81475e+15 0)
(-1.40737e+15 2.81475e+15 0)
(0 6.33319e+15 0)
(3.51844e+15 0 0)
(2.81475e+15 1.40737e+15 0)
(9.14794e+15 3.51844e+15 0)
(1.05553e+16 7.74056e+15 0)
(-7.03687e+15 3.51844e+15 0)
(-2.32217e+16 4.22212e+15 0)
(-9.85162e+15 9.14794e+15 0)
(3.51844e+15 4.22212e+15 0)
(3.51844e+15 -7.03687e+14 0)
(0 6.33319e+15 0)
(-7.03687e+14 6.33319e+15 0)
(2.11106e+15 9.85162e+15 0)
(4.22212e+15 4.92581e+15 0)
(4.92581e+15 -4.22212e+15 0)
(-4.92581e+15 -2.81475e+15 0)
(-1.26664e+16 -7.03687e+14 0)
(-1.05553e+16 4.22212e+15 0)
(-5.6295e+15 1.40737e+15 0)
(7.03687e+14 -2.11106e+15 0)
(6.33319e+15 2.81475e+15 0)
(4.92581e+15 0 0)
(-1.40737e+15 0 0)
(-4.92581e+15 -1.40737e+15 0)
(4.22212e+15 -7.74056e+15 0)
(-5.6295e+15 -6.33319e+15 0)
(-1.61848e+16 -6.33319e+15 0)
(-7.03687e+15 -1.40737e+15 0)
(-1.40737e+15 -2.11106e+15 0)
(3.51844e+15 2.81475e+15 0)
(2.11106e+15 5.6295e+15 0)
(-3.51844e+15 -7.74056e+15 0)
(0 -1.40737e+15 0)
(-4.92581e+15 3.51844e+15 0)
(1.40737e+15 1.40737e+15 0)
(-2.81475e+15 -7.03687e+14 0)
(-8.44425e+15 7.03687e+15 0)
(-7.03687e+15 1.26664e+16 0)
(-2.81475e+15 7.03687e+15 0)
(9.14794e+15 4.92581e+15 0)
(-2.81475e+15 0 0)
(-7.74056e+15 -2.81475e+15 0)
(4.22212e+15 7.03687e+15 0)
(-7.03687e+14 1.26664e+16 0)
(-2.11106e+15 1.40737e+16 0)
(1.40737e+15 6.33319e+15 0)
(-2.81475e+15 1.26664e+16 0)
(-7.74056e+15 1.05553e+16 0)
(-7.03687e+15 1.1259e+16 0)
(-3.51844e+15 7.74056e+15 0)
(-6.33319e+15 0 0)
(-6.33319e+15 -2.11106e+15 0)
(4.22212e+15 1.19627e+16 0)
(2.81475e+15 1.26664e+16 0)
(-6.33319e+15 1.61848e+16 0)
(-3.51844e+15 9.14794e+15 0)
(-3.51844e+15 6.33319e+15 0)
(-9.14794e+15 6.33319e+15 0)
(-6.33319e+15 7.74056e+15 0)
(-1.40737e+15 7.74056e+15 0)
(-1.26664e+16 -2.81475e+15 0)
(-1.1259e+16 -8.44425e+15 0)
(5.6295e+15 9.14794e+15 0)
(3.51844e+15 6.33319e+15 0)
(-5.6295e+15 5.6295e+15 0)
(-9.14794e+15 7.03687e+15 0)
(-6.33319e+15 2.81475e+15 0)
(-4.22212e+15 0 0)
(-6.33319e+15 4.92581e+15 0)
(-1.33701e+16 1.40737e+15 0)
(-2.18143e+16 -1.19627e+16 0)
(-1.19627e+16 -5.6295e+15 0)
(2.11106e+15 3.51844e+15 0)
(-2.11106e+15 0 0)
(-3.51844e+15 -2.81475e+15 0)
(-6.33319e+15 2.81475e+15 0)
(-1.05553e+16 7.03687e+14 0)
(-7.03687e+15 -3.51844e+15 0)
(-5.6295e+15 -2.11106e+15 0)
(-1.89996e+16 -2.81475e+15 0)
(-1.89996e+16 -6.33319e+15 0)
(-5.6295e+15 0 0)
)
;

boundaryField
{
    left
    {
        type            calculated;
        value           nonuniform List<vector> 10((0 -7.74056e+15 0) (0 -1.1259e+16 0) (0 1.40737e+15 0) (0 9.85162e+15 0) (0 0 0) (0 -1.40737e+15 0) (0 7.03687e+15 0) (0 1.19627e+16 0) (0 9.14794e+15 0) (0 3.51844e+15 0));
    }
    right
    {
        type            calculated;
        value           nonuniform List<vector> 10((0 -2.11106e+15 0) (0 0 0) (0 6.33319e+15 0) (0 0 0) (0 -7.74056e+15 0) (0 -2.81475e+15 0) (0 -2.11106e+15 0) (0 -8.44425e+15 0) (0 -5.6295e+15 0) (0 0 0));
    }
    top
    {
        type            calculated;
        value           nonuniform List<vector> 10((2.11106e+15 0 0) (-2.11106e+15 0 0) (-3.51844e+15 0 0) (-6.33319e+15 0 0) (-1.05553e+16 0 0) (-7.03687e+15 0 0) (-5.6295e+15 0 0) (-1.89996e+16 0 0) (-1.89996e+16 0 0) (-5.6295e+15 0 0));
    }
    bottom
    {
        type            calculated;
        value           nonuniform List<vector> 10((-8.44425e+15 0 0) (-1.33701e+16 0 0) (-2.81475e+15 0 0) (2.11106e+15 0 0) (-9.85162e+15 0 0) (-1.05553e+16 0 0) (1.40737e+15 0 0) (-1.40737e+15 0 0) (4.92581e+15 0 0) (6.33319e+15 0 0));
    }
    defaultFaces
    {
        type            empty;
    }
}


// ************************************************************************* //
