/*--------------------------------*- C++ -*----------------------------------*\
| =========                 |                                                 |
| \\      /  F ield         | OpenFOAM: The Open Source CFD Toolbox           |
|  \\    /   O peration     | Version:  2406                                  |
|   \\  /    A nd           | Website:  www.openfoam.com                      |
|    \\/     M anipulation  |                                                 |
\*---------------------------------------------------------------------------*/
FoamFile
{
    version     2.0;
    format      ascii;
    arch        "LSB;label=32;scalar=64";
    class       volVectorField;
    location    "3.75";
    object      flux;
}
// * * * * * * * * * * * * * * * * * * * * * * * * * * * * * * * * * * * * * //

dimensions      [0 1 -1 1 0 0 0];

internalField   nonuniform List<vector> 
100
(
(-0.000267029 -0.000305176 0)
(-0.000572205 -7.62939e-05 0)
(-7.62939e-05 0.000114441 0)
(7.62939e-05 0.000228882 0)
(-0.000495911 7.62939e-05 0)
(-0.000419617 0 0)
(0.000114441 3.8147e-05 0)
(0.000114441 -3.8147e-05 0)
(0.000152588 0 0)
(0.000190735 -7.62939e-05 0)
(-7.62939e-05 -0.000610352 0)
(-0.000152588 -0.000190735 0)
(0.000267029 0.000419617 0)
(7.62939e-05 0.000457764 0)
(-0.000801086 0.000114441 0)
(-0.000419617 0.000114441 0)
(7.62939e-05 0.000190735 0)
(7.62939e-05 3.8147e-05 0)
(7.62939e-05 0.000190735 0)
(0.000152588 0 0)
(0.000152588 -7.62939e-05 0)
(0.000419617 3.8147e-05 0)
(0.000534058 0.000228882 0)
(-0.000190735 3.8147e-05 0)
(-0.000839233 0.000114441 0)
(-0.000305176 0.000305176 0)
(3.8147e-05 0.000152588 0)
(7.62939e-05 -3.8147e-05 0)
(7.62939e-05 0.000190735 0)
(3.8147e-05 0.000152588 0)
(7.62939e-05 0.000190735 0)
(0.000152588 0.000114441 0)
(0.000267029 -0.000305176 0)
(-3.8147e-05 -0.000305176 0)
(-0.000495911 -0.000152588 0)
(-0.000457764 0 0)
(-0.000228882 -0.000190735 0)
(0.000114441 -0.000190735 0)
(0.000267029 0 0)
(0.000114441 -0.000190735 0)
(3.8147e-05 -7.62939e-05 0)
(-3.8147e-05 -7.62939e-05 0)
(0.000152588 -0.000305176 0)
(-0.000114441 -0.000343323 0)
(-0.000572205 -0.00038147 0)
(-0.000343323 -0.000114441 0)
(-0.000114441 -0.000152588 0)
(0.000305176 3.8147e-05 0)
(3.8147e-05 7.62939e-05 0)
(-0.000190735 -0.000305176 0)
(0.000114441 3.8147e-05 0)
(-7.62939e-05 3.8147e-05 0)
(0 0 0)
(-0.000114441 -7.62939e-05 0)
(-0.000228882 0.000190735 0)
(-0.000190735 0.000419617 0)
(-0.000152588 0.00038147 0)
(0.000305176 0.000114441 0)
(-7.62939e-05 -7.62939e-05 0)
(-0.000267029 -0.000114441 0)
(3.8147e-05 0.000419617 0)
(-7.62939e-05 0.000419617 0)
(0 0.000534058 0)
(0.000114441 0.000267029 0)
(-0.000114441 0.000419617 0)
(-0.000190735 0.000305176 0)
(-0.000305176 0.000343323 0)
(-0.000152588 0.000267029 0)
(-0.000152588 0 0)
(-0.000228882 -0.000190735 0)
(0.000114441 0.000534058 0)
(3.8147e-05 0.000686646 0)
(-0.000228882 0.000724792 0)
(-0.000190735 0.000419617 0)
(-0.000152588 0.000305176 0)
(-0.000305176 0.000305176 0)
(-0.000228882 0.000228882 0)
(-3.8147e-05 0.000267029 0)
(-0.000495911 -0.000190735 0)
(-0.000419617 -0.000419617 0)
(0.000267029 0.00038147 0)
(0.000152588 0.00038147 0)
(-0.000228882 0.000267029 0)
(-0.000343323 0.000343323 0)
(-0.000267029 0.000190735 0)
(-0.000228882 -7.62939e-05 0)
(-0.000343323 0.000190735 0)
(-0.000572205 -3.8147e-05 0)
(-0.00087738 -0.000610352 0)
(-0.000457764 -0.00038147 0)
(7.62939e-05 0.000190735 0)
(-0.000114441 0 0)
(-0.000190735 -3.8147e-05 0)
(-0.000267029 3.8147e-05 0)
(-0.000534058 3.8147e-05 0)
(-0.000305176 -0.000190735 0)
(-0.000228882 -7.62939e-05 0)
(-0.00087738 -0.000114441 0)
(-0.000801086 -0.000343323 0)
(-0.000228882 -7.62939e-05 0)
)
;

boundaryField
{
    left
    {
        type            calculated;
        value           nonuniform List<vector> 10((0 -0.000305176 0) (0 -0.000610352 0) (0 -7.62939e-05 0) (0 0.000190735 0) (0 -7.62939e-05 0) (0 3.8147e-05 0) (0 0.000419617 0) (0 0.000534058 0) (0 0.00038147 0) (0 0.000190735 0));
    }
    right
    {
        type            calculated;
        value           nonuniform List<vector> 10((0 -7.62939e-05 0) (0 0 0) (0 0.000152588 0) (0 -0.000190735 0) (0 -0.000305176 0) (0 -0.000114441 0) (0 -0.000190735 0) (0 -0.000419617 0) (0 -0.00038147 0) (0 -7.62939e-05 0));
    }
    top
    {
        type            calculated;
        value           nonuniform List<vector> 10((7.62939e-05 0 0) (-0.000114441 0 0) (-0.000190735 0 0) (-0.000267029 0 0) (-0.000534058 0 0) (-0.000305176 0 0) (-0.000228882 0 0) (-0.00087738 0 0) (-0.000801086 0 0) (-0.000228882 0 0));
    }
    bottom
    {
        type            calculated;
        value           nonuniform List<vector> 10((-0.000267029 0 0) (-0.000572205 0 0) (-7.62939e-05 0 0) (7.62939e-05 0 0) (-0.000495911 0 0) (-0.000419617 0 0) (0.000114441 0 0) (0.000114441 0 0) (0.000152588 0 0) (0.000190735 0 0));
    }
    defaultFaces
    {
        type            empty;
    }
}


// ************************************************************************* //
