/*--------------------------------*- C++ -*----------------------------------*\
| =========                 |                                                 |
| \\      /  F ield         | OpenFOAM: The Open Source CFD Toolbox           |
|  \\    /   O peration     | Version:  2406                                  |
|   \\  /    A nd           | Website:  www.openfoam.com                      |
|    \\/     M anipulation  |                                                 |
\*---------------------------------------------------------------------------*/
FoamFile
{
    version     2.0;
    format      ascii;
    arch        "LSB;label=32;scalar=64";
    class       volScalarField;
    location    "3.75";
    object      gradTy;
}
// * * * * * * * * * * * * * * * * * * * * * * * * * * * * * * * * * * * * * //

dimensions      [0 -1 0 1 0 0 0];

internalField   nonuniform List<scalar> 
100
(
-0.00762939
-0.00190735
0.00286102
0.00572205
0.00190735
0
0.000953674
-0.000953674
0
-0.00190735
-0.0152588
-0.00476837
0.0104904
0.0114441
0.00286102
0.00286102
0.00476837
0.000953674
0.00476837
0
-0.00190735
0.000953674
0.00572205
0.000953674
0.00286102
0.00762939
0.0038147
-0.000953674
0.00476837
0.0038147
0.00476837
0.00286102
-0.00762939
-0.00762939
-0.0038147
0
-0.00476837
-0.00476837
0
-0.00476837
-0.00190735
-0.00190735
-0.00762939
-0.00858307
-0.00953674
-0.00286102
-0.0038147
0.000953674
0.00190735
-0.00762939
0.000953674
0.000953674
0
-0.00190735
0.00476837
0.0104904
0.00953674
0.00286102
-0.00190735
-0.00286102
0.0104904
0.0104904
0.0133514
0.00667572
0.0104904
0.00762939
0.00858307
0.00667572
0
-0.00476837
0.0133514
0.0171661
0.0181198
0.0104904
0.00762939
0.00762939
0.00572205
0.00667572
-0.00476837
-0.0104904
0.00953674
0.00953674
0.00667572
0.00858307
0.00476837
-0.00190735
0.00476837
-0.000953674
-0.0152588
-0.00953674
0.00476837
0
-0.000953674
0.000953674
0.000953674
-0.00476837
-0.00190735
-0.00286102
-0.00858307
-0.00190735
)
;

boundaryField
{
    left
    {
        type            calculated;
        value           nonuniform List<scalar> 10(-0.00762939 -0.0152588 -0.00190735 0.00476837 -0.00190735 0.000953674 0.0104904 0.0133514 0.00953674 0.00476837);
    }
    right
    {
        type            calculated;
        value           nonuniform List<scalar> 10(-0.00190735 0 0.0038147 -0.00476837 -0.00762939 -0.00286102 -0.00476837 -0.0104904 -0.00953674 -0.00190735);
    }
    top
    {
        type            calculated;
        value           uniform 0;
    }
    bottom
    {
        type            calculated;
        value           uniform 0;
    }
    defaultFaces
    {
        type            empty;
    }
}


// ************************************************************************* //
