/*--------------------------------*- C++ -*----------------------------------*\
| =========                 |                                                 |
| \\      /  F ield         | OpenFOAM: The Open Source CFD Toolbox           |
|  \\    /   O peration     | Version:  2406                                  |
|   \\  /    A nd           | Website:  www.openfoam.com                      |
|    \\/     M anipulation  |                                                 |
\*---------------------------------------------------------------------------*/
FoamFile
{
    version     2.0;
    format      ascii;
    arch        "LSB;label=32;scalar=64";
    class       volScalarField;
    location    "5.65";
    object      gradTy;
}
// * * * * * * * * * * * * * * * * * * * * * * * * * * * * * * * * * * * * * //

dimensions      [0 -1 0 1 0 0 0];

internalField   nonuniform List<scalar> 
100
(
-2.048e+06
-1.024e+06
768000
1.28e+06
0
-256000
256000
256000
256000
0
-3.84e+06
-512000
3.584e+06
3.328e+06
512000
512000
1.792e+06
1.024e+06
2.048e+06
1.024e+06
768000
1.536e+06
1.792e+06
1.28e+06
1.024e+06
2.816e+06
1.536e+06
0
1.28e+06
1.792e+06
3.072e+06
1.28e+06
-768000
-1.792e+06
-768000
1.28e+06
0
-1.024e+06
0
-768000
-512000
-768000
-2.304e+06
-2.56e+06
-2.304e+06
-768000
-1.28e+06
1.024e+06
512000
-2.816e+06
-768000
512000
-512000
256000
1.792e+06
2.816e+06
1.024e+06
0
-256000
-1.536e+06
3.328e+06
3.84e+06
4.608e+06
2.304e+06
3.328e+06
2.816e+06
2.816e+06
1.28e+06
-768000
-1.792e+06
3.84e+06
4.864e+06
5.376e+06
2.816e+06
1.792e+06
2.56e+06
2.304e+06
1.792e+06
-1.536e+06
-3.072e+06
3.072e+06
2.304e+06
1.792e+06
1.536e+06
1.024e+06
-1.024e+06
256000
-1.28e+06
-4.608e+06
-2.048e+06
1.536e+06
0
-768000
512000
-256000
-2.304e+06
-512000
-1.28e+06
-2.56e+06
-768000
)
;

boundaryField
{
    left
    {
        type            calculated;
        value           nonuniform List<scalar> 10(-2.048e+06 -3.84e+06 768000 3.072e+06 -512000 -768000 3.328e+06 3.84e+06 3.072e+06 1.536e+06);
    }
    right
    {
        type            calculated;
        value           nonuniform List<scalar> 10(0 1.024e+06 1.792e+06 -768000 -2.816e+06 -1.536e+06 -1.792e+06 -3.072e+06 -2.048e+06 -768000);
    }
    top
    {
        type            calculated;
        value           uniform 0;
    }
    bottom
    {
        type            calculated;
        value           uniform 0;
    }
    defaultFaces
    {
        type            empty;
    }
}


// ************************************************************************* //
