/*--------------------------------*- C++ -*----------------------------------*\
| =========                 |                                                 |
| \\      /  F ield         | OpenFOAM: The Open Source CFD Toolbox           |
|  \\    /   O peration     | Version:  2406                                  |
|   \\  /    A nd           | Website:  www.openfoam.com                      |
|    \\/     M anipulation  |                                                 |
\*---------------------------------------------------------------------------*/
FoamFile
{
    version     2.0;
    format      ascii;
    arch        "LSB;label=32;scalar=64";
    class       volScalarField;
    location    "4.4";
    object      gradTx;
}
// * * * * * * * * * * * * * * * * * * * * * * * * * * * * * * * * * * * * * //

dimensions      [0 -1 0 1 0 0 0];

internalField   nonuniform List<scalar> 
100
(
-5.85937
-11.2305
-0.976563
0.976562
-10.7422
-5.37109
2.92969
1.46484
1.95313
2.92969
-3.41797
-3.90625
5.37109
0.488281
-15.625
-8.30078
4.39453
1.95312
2.44141
2.44141
4.88281
8.78906
8.30078
-4.39453
-15.625
-5.85938
3.41797
2.44141
1.95313
0.976563
1.95312
3.90625
4.88281
-2.44141
-8.78906
-8.30078
-4.88281
3.90625
6.83594
2.92969
-1.46484
-1.46484
2.92969
-6.34766
-11.2305
-4.39453
1.46484
4.88281
1.46484
-2.92969
1.95313
-4.39453
-1.46484
-1.95312
-5.85938
-2.92969
-0.976563
7.32422
-0.976563
-3.41797
0.976562
-1.46484
0
-0.488281
-3.90625
-3.41797
-3.90625
-1.95312
-4.39453
-4.88281
2.44141
1.46484
-4.88281
-5.85937
-3.90625
-5.37109
-4.88281
-2.92969
-9.27734
-7.32422
6.34766
3.90625
-5.85938
-7.32422
-6.34766
-6.34766
-5.37109
-8.78906
-15.1367
-9.27734
-0.976562
-0.976562
-1.95313
-9.27734
-11.7188
-5.85938
-6.83594
-14.1602
-13.1836
-3.90625
)
;

boundaryField
{
    left
    {
        type            calculated;
        value           uniform 0;
    }
    right
    {
        type            calculated;
        value           uniform 0;
    }
    top
    {
        type            calculated;
        value           nonuniform List<scalar> 10(-0.976562 -0.976562 -1.95313 -9.27734 -11.7188 -5.85938 -6.83594 -14.1602 -13.1836 -3.90625);
    }
    bottom
    {
        type            calculated;
        value           nonuniform List<scalar> 10(-5.85937 -11.2305 -0.976563 0.976562 -10.7422 -5.37109 2.92969 1.46484 1.95313 2.92969);
    }
    defaultFaces
    {
        type            empty;
    }
}


// ************************************************************************* //
