/*--------------------------------*- C++ -*----------------------------------*\
| =========                 |                                                 |
| \\      /  F ield         | OpenFOAM: The Open Source CFD Toolbox           |
|  \\    /   O peration     | Version:  2406                                  |
|   \\  /    A nd           | Website:  www.openfoam.com                      |
|    \\/     M anipulation  |                                                 |
\*---------------------------------------------------------------------------*/
FoamFile
{
    version     2.0;
    format      ascii;
    arch        "LSB;label=32;scalar=64";
    class       volScalarField;
    location    "4.4";
    object      gradTy;
}
// * * * * * * * * * * * * * * * * * * * * * * * * * * * * * * * * * * * * * //

dimensions      [0 -1 0 1 0 0 0];

internalField   nonuniform List<scalar> 
100
(
-4.39453
-2.44141
2.44141
4.39453
2.44141
-1.46484
0
0
1.46484
0.976562
-12.6953
-1.95312
8.78906
7.8125
2.44141
1.95313
3.90625
1.95312
4.39453
1.46484
-2.44141
2.44141
4.88281
2.44141
2.44141
8.78906
2.44141
-0.488281
4.39453
4.39453
8.30078
2.44141
-2.44141
-4.39453
-4.39453
1.46484
-2.44141
-2.44141
0
-2.92969
-0.976562
-0.976562
-7.8125
-7.8125
-7.32422
-4.39453
-2.44141
0.976562
0
-6.34766
0
0.976563
0
-0.976562
5.37109
5.85938
4.88281
1.46484
-1.46484
-4.39453
8.78906
10.2539
14.1602
7.32422
10.2539
8.78906
8.78906
3.90625
-0.488281
-4.39453
8.78906
14.1602
13.6719
8.30078
7.32422
6.34766
4.88281
4.39453
-2.44141
-6.83594
6.83594
3.90625
4.39453
6.34766
0.488281
-1.95313
0.488281
-3.41797
-11.2305
-6.83594
5.37109
-1.46484
-0.976563
2.92969
-2.44141
-2.92969
-2.44141
-4.39453
-7.8125
-2.44141
)
;

boundaryField
{
    left
    {
        type            calculated;
        value           nonuniform List<scalar> 10(-4.39453 -12.6953 -2.44141 8.30078 -0.976562 0 8.78906 8.78906 6.83594 5.37109);
    }
    right
    {
        type            calculated;
        value           nonuniform List<scalar> 10(0.976562 1.46484 4.39453 -2.92969 -6.34766 -4.39453 -4.39453 -6.83594 -6.83594 -2.44141);
    }
    top
    {
        type            calculated;
        value           uniform 0;
    }
    bottom
    {
        type            calculated;
        value           uniform 0;
    }
    defaultFaces
    {
        type            empty;
    }
}


// ************************************************************************* //
