/*--------------------------------*- C++ -*----------------------------------*\
| =========                 |                                                 |
| \\      /  F ield         | OpenFOAM: The Open Source CFD Toolbox           |
|  \\    /   O peration     | Version:  2406                                  |
|   \\  /    A nd           | Website:  www.openfoam.com                      |
|    \\/     M anipulation  |                                                 |
\*---------------------------------------------------------------------------*/
FoamFile
{
    version     2.0;
    format      ascii;
    arch        "LSB;label=32;scalar=64";
    class       volScalarField;
    location    "2.2";
    object      gradTy;
}
// * * * * * * * * * * * * * * * * * * * * * * * * * * * * * * * * * * * * * //

dimensions      [0 -1 0 1 0 0 0];

internalField   nonuniform List<scalar> 
100
(
-6.82121e-10
-3.41061e-10
2.27374e-10
9.09495e-10
3.41061e-10
0
-1.13687e-10
0
1.13687e-10
-1.13687e-10
-1.59162e-09
-3.41061e-10
1.47793e-09
1.36424e-09
1.13687e-10
4.54747e-10
5.68434e-10
4.54747e-10
1.02318e-09
1.13687e-10
-2.27374e-10
4.54747e-10
1.25056e-09
4.54747e-10
3.41061e-10
1.25056e-09
6.82121e-10
0
9.09495e-10
9.09495e-10
1.13687e-09
7.95808e-10
-6.82121e-10
-5.68434e-10
-3.41061e-10
2.27374e-10
-3.41061e-10
-4.54747e-10
0
-4.54747e-10
-2.27374e-10
-3.41061e-10
-1.25056e-09
-1.25056e-09
-1.13687e-09
-4.54747e-10
-5.68434e-10
0
2.27374e-10
-1.02318e-09
-6.82121e-10
-4.54747e-10
-1.13687e-10
-3.41061e-10
7.95808e-10
1.02318e-09
9.09495e-10
5.68434e-10
1.13687e-10
-1.13687e-10
9.09495e-10
9.09495e-10
1.36424e-09
9.09495e-10
1.47793e-09
1.25056e-09
1.25056e-09
1.02318e-09
1.13687e-10
-2.27374e-10
1.13687e-09
1.7053e-09
1.59162e-09
9.09495e-10
1.02318e-09
7.95808e-10
7.95808e-10
5.68434e-10
-5.68434e-10
-1.47793e-09
9.09495e-10
7.95808e-10
4.54747e-10
4.54747e-10
1.13687e-10
-4.54747e-10
3.41061e-10
-3.41061e-10
-1.7053e-09
-9.09495e-10
5.68434e-10
-2.27374e-10
0
1.13687e-10
-3.41061e-10
-5.68434e-10
-2.27374e-10
-6.82121e-10
-1.13687e-09
1.13687e-10
)
;

boundaryField
{
    left
    {
        type            calculated;
        value           nonuniform List<scalar> 10(-6.82121e-10 -1.59162e-09 -2.27374e-10 1.13687e-09 -2.27374e-10 -6.82121e-10 9.09495e-10 1.13687e-09 9.09495e-10 5.68434e-10);
    }
    right
    {
        type            calculated;
        value           nonuniform List<scalar> 10(-1.13687e-10 1.13687e-10 9.09495e-10 -4.54747e-10 -1.02318e-09 -1.13687e-10 -2.27374e-10 -1.47793e-09 -9.09495e-10 1.13687e-10);
    }
    top
    {
        type            calculated;
        value           uniform 0;
    }
    bottom
    {
        type            calculated;
        value           uniform 0;
    }
    defaultFaces
    {
        type            empty;
    }
}


// ************************************************************************* //
