/*--------------------------------*- C++ -*----------------------------------*\
| =========                 |                                                 |
| \\      /  F ield         | OpenFOAM: The Open Source CFD Toolbox           |
|  \\    /   O peration     | Version:  2406                                  |
|   \\  /    A nd           | Website:  www.openfoam.com                      |
|    \\/     M anipulation  |                                                 |
\*---------------------------------------------------------------------------*/
FoamFile
{
    version     2.0;
    format      ascii;
    arch        "LSB;label=32;scalar=64";
    class       volScalarField;
    location    "2.2";
    object      gradTx;
}
// * * * * * * * * * * * * * * * * * * * * * * * * * * * * * * * * * * * * * //

dimensions      [0 -1 0 1 0 0 0];

internalField   nonuniform List<scalar> 
100
(
-7.95808e-10
-1.81899e-09
-4.54747e-10
3.41061e-10
-1.47793e-09
-1.13687e-09
4.54747e-10
0
4.54747e-10
7.95808e-10
-4.54747e-10
-9.09495e-10
6.82121e-10
4.54747e-10
-2.38742e-09
-1.47793e-09
6.82121e-10
1.13687e-10
1.13687e-10
5.68434e-10
3.41061e-10
1.13687e-09
1.47793e-09
-9.09495e-10
-2.50111e-09
-7.95808e-10
5.68434e-10
4.54747e-10
2.27374e-10
-2.27374e-10
2.27374e-10
6.82121e-10
6.82121e-10
-5.68434e-10
-1.47793e-09
-1.25056e-09
-6.82121e-10
3.41061e-10
1.13687e-09
5.68434e-10
-1.13687e-10
-5.68434e-10
1.13687e-10
-6.82121e-10
-1.7053e-09
-7.95808e-10
-2.27374e-10
1.02318e-09
1.13687e-10
-5.68434e-10
2.27374e-10
-4.54747e-10
-1.13687e-10
-3.41061e-10
-6.82121e-10
-6.82121e-10
-3.41061e-10
1.13687e-09
0
-7.95808e-10
2.27374e-10
-1.13687e-10
2.27374e-10
1.13687e-10
-2.27374e-10
-5.68434e-10
-4.54747e-10
1.13687e-10
-5.68434e-10
-6.82121e-10
2.27374e-10
1.13687e-10
-2.27374e-10
-1.13687e-10
-4.54747e-10
-1.02318e-09
-3.41061e-10
0
-1.47793e-09
-1.25056e-09
7.95808e-10
2.27374e-10
-6.82121e-10
-3.41061e-10
-3.41061e-10
-9.09495e-10
-6.82121e-10
-1.25056e-09
-2.38742e-09
-1.47793e-09
0
-3.41061e-10
-3.41061e-10
-6.82121e-10
-1.13687e-09
-6.82121e-10
-6.82121e-10
-2.04636e-09
-1.81899e-09
-3.41061e-10
)
;

boundaryField
{
    left
    {
        type            calculated;
        value           uniform 0;
    }
    right
    {
        type            calculated;
        value           uniform 0;
    }
    top
    {
        type            calculated;
        value           nonuniform List<scalar> 10(0 -3.41061e-10 -3.41061e-10 -6.82121e-10 -1.13687e-09 -6.82121e-10 -6.82121e-10 -2.04636e-09 -1.81899e-09 -3.41061e-10);
    }
    bottom
    {
        type            calculated;
        value           nonuniform List<scalar> 10(-7.95808e-10 -1.81899e-09 -4.54747e-10 3.41061e-10 -1.47793e-09 -1.13687e-09 4.54747e-10 0 4.54747e-10 7.95808e-10);
    }
    defaultFaces
    {
        type            empty;
    }
}


// ************************************************************************* //
