/*--------------------------------*- C++ -*----------------------------------*\
| =========                 |                                                 |
| \\      /  F ield         | OpenFOAM: The Open Source CFD Toolbox           |
|  \\    /   O peration     | Version:  2406                                  |
|   \\  /    A nd           | Website:  www.openfoam.com                      |
|    \\/     M anipulation  |                                                 |
\*---------------------------------------------------------------------------*/
FoamFile
{
    version     2.0;
    format      ascii;
    arch        "LSB;label=32;scalar=64";
    class       volScalarField;
    location    "1.7";
    object      gradTx;
}
// * * * * * * * * * * * * * * * * * * * * * * * * * * * * * * * * * * * * * //

dimensions      [0 -1 0 1 0 0 0];

internalField   nonuniform List<scalar> 
100
(
-5.32907e-12
-1.15463e-11
-2.22045e-12
2.22045e-12
-9.76996e-12
-7.10543e-12
3.10862e-12
3.55271e-12
3.55271e-12
2.66454e-12
-1.77636e-12
-3.9968e-12
4.44089e-12
1.77636e-12
-1.46549e-11
-7.99361e-12
2.66454e-12
2.22045e-12
4.88498e-12
4.44089e-12
3.55271e-12
7.10543e-12
7.10543e-12
-4.88498e-12
-1.42109e-11
-6.21725e-12
2.66454e-12
3.55271e-12
3.10862e-12
8.88178e-13
4.44089e-13
1.77636e-12
3.55271e-12
-3.55271e-12
-9.32587e-12
-7.10543e-12
-2.22045e-12
3.55271e-12
5.77316e-12
2.66454e-12
0
-3.10862e-12
8.88178e-13
-4.88498e-12
-1.06581e-11
-4.44089e-12
1.77636e-12
8.43769e-12
2.22045e-12
-3.55271e-12
8.88178e-13
-2.66454e-12
0
-1.33227e-12
-4.88498e-12
-1.77636e-12
4.44089e-13
7.99361e-12
8.88178e-13
-3.9968e-12
1.77636e-12
-8.88178e-13
1.77636e-12
1.33227e-12
-4.44089e-12
-3.55271e-12
-2.22045e-12
0
-3.10862e-12
-3.10862e-12
2.66454e-12
1.77636e-12
-1.77636e-12
-2.66454e-12
-2.22045e-12
-4.88498e-12
-1.77636e-12
0
-7.54952e-12
-7.10543e-12
5.32907e-12
3.9968e-12
-3.10862e-12
-5.77316e-12
-3.10862e-12
-3.10862e-12
-3.10862e-12
-6.21725e-12
-1.42109e-11
-8.88178e-12
4.44089e-13
-1.33227e-12
0
-3.10862e-12
-7.10543e-12
-4.88498e-12
-4.88498e-12
-1.28786e-11
-1.19904e-11
-3.55271e-12
)
;

boundaryField
{
    left
    {
        type            calculated;
        value           uniform 0;
    }
    right
    {
        type            calculated;
        value           uniform 0;
    }
    top
    {
        type            calculated;
        value           nonuniform List<scalar> 10(4.44089e-13 -1.33227e-12 0 -3.10862e-12 -7.10543e-12 -4.88498e-12 -4.88498e-12 -1.28786e-11 -1.19904e-11 -3.55271e-12);
    }
    bottom
    {
        type            calculated;
        value           nonuniform List<scalar> 10(-5.32907e-12 -1.15463e-11 -2.22045e-12 2.22045e-12 -9.76996e-12 -7.10543e-12 3.10862e-12 3.55271e-12 3.55271e-12 2.66454e-12);
    }
    defaultFaces
    {
        type            empty;
    }
}


// ************************************************************************* //
