/*--------------------------------*- C++ -*----------------------------------*\
| =========                 |                                                 |
| \\      /  F ield         | OpenFOAM: The Open Source CFD Toolbox           |
|  \\    /   O peration     | Version:  2406                                  |
|   \\  /    A nd           | Website:  www.openfoam.com                      |
|    \\/     M anipulation  |                                                 |
\*---------------------------------------------------------------------------*/
FoamFile
{
    version     2.0;
    format      ascii;
    arch        "LSB;label=32;scalar=64";
    class       volScalarField;
    location    "8.2";
    object      gradTy;
}
// * * * * * * * * * * * * * * * * * * * * * * * * * * * * * * * * * * * * * //

dimensions      [0 -1 0 1 0 0 0];

internalField   nonuniform List<scalar> 
100
(
-3.51844e+17
0
2.11106e+17
4.92581e+17
1.40737e+17
-7.03687e+16
7.03687e+16
7.03687e+16
-1.40737e+17
0
-7.03687e+17
0
8.44425e+17
7.74056e+17
1.40737e+17
0
3.51844e+17
2.81475e+17
2.81475e+17
7.03687e+16
7.03687e+16
2.81475e+17
5.6295e+17
2.81475e+17
2.11106e+17
5.6295e+17
2.81475e+17
0
4.92581e+17
2.81475e+17
7.03687e+17
2.81475e+17
-2.11106e+17
-1.40737e+17
-2.11106e+17
1.40737e+17
-2.11106e+17
-1.40737e+17
2.81475e+17
-2.11106e+17
-1.40737e+17
7.03687e+16
-6.33319e+17
-3.51844e+17
-4.22212e+17
1.40737e+17
-2.11106e+17
1.40737e+17
2.11106e+17
-3.51844e+17
-2.81475e+17
0
0
-7.03687e+16
4.92581e+17
7.03687e+17
7.03687e+17
2.11106e+17
0
0
7.74056e+17
7.74056e+17
1.19627e+18
5.6295e+17
9.14794e+17
8.44425e+17
7.03687e+17
4.92581e+17
7.03687e+16
-2.81475e+17
9.14794e+17
1.1259e+18
1.33701e+18
7.74056e+17
7.74056e+17
4.92581e+17
4.92581e+17
5.6295e+17
-2.81475e+17
-7.03687e+17
4.92581e+17
4.22212e+17
2.81475e+17
5.6295e+17
2.11106e+17
-2.81475e+17
2.81475e+17
0
-9.14794e+17
-4.92581e+17
4.22212e+17
-7.03687e+16
-1.40737e+17
2.11106e+17
-1.40737e+17
-2.81475e+17
-7.03687e+16
-1.40737e+17
-4.92581e+17
0
)
;

boundaryField
{
    left
    {
        type            calculated;
        value           nonuniform List<scalar> 10(-3.51844e+17 -7.03687e+17 7.03687e+16 7.03687e+17 -1.40737e+17 -2.81475e+17 7.74056e+17 9.14794e+17 4.92581e+17 4.22212e+17);
    }
    right
    {
        type            calculated;
        value           nonuniform List<scalar> 10(0 7.03687e+16 2.81475e+17 -2.11106e+17 -3.51844e+17 0 -2.81475e+17 -7.03687e+17 -4.92581e+17 0);
    }
    top
    {
        type            calculated;
        value           uniform 0;
    }
    bottom
    {
        type            calculated;
        value           uniform 0;
    }
    defaultFaces
    {
        type            empty;
    }
}


// ************************************************************************* //
