/*--------------------------------*- C++ -*----------------------------------*\
| =========                 |                                                 |
| \\      /  F ield         | OpenFOAM: The Open Source CFD Toolbox           |
|  \\    /   O peration     | Version:  v2012                                 |
|   \\  /    A nd           | Website:  www.openfoam.com                      |
|    \\/     M anipulation  |                                                 |
\*---------------------------------------------------------------------------*/
FoamFile
{
    version     2.0;
    format      ascii;
    class       volScalarField;
    location    "2.9";
    object      DT;
}
// * * * * * * * * * * * * * * * * * * * * * * * * * * * * * * * * * * * * * //

dimensions      [0 2 -1 0 0 0 0];


internalField   uniform 4e-05;

boundaryField
{
    patch1
    {
        type            calculated;
        value           uniform 4e-05;
    }
    patch2
    {
        type            calculated;
        value           uniform 4e-05;
    }
    patch3
    {
        type            calculated;
        value           uniform 4e-05;
    }
    patch4
    {
        type            calculated;
        value           uniform 4e-05;
    }
    defaultFaces
    {
        type            empty;
    }
}


// ************************************************************************* //
