/*--------------------------------*- C++ -*----------------------------------*\
| =========                 |                                                 |
| \\      /  F ield         | OpenFOAM: The Open Source CFD Toolbox           |
|  \\    /   O peration     | Version:  2406                                  |
|   \\  /    A nd           | Website:  www.openfoam.com                      |
|    \\/     M anipulation  |                                                 |
\*---------------------------------------------------------------------------*/
FoamFile
{
    version     2.0;
    format      ascii;
    arch        "LSB;label=32;scalar=64";
    class       volVectorField;
    location    "3.85";
    object      flux;
}
// * * * * * * * * * * * * * * * * * * * * * * * * * * * * * * * * * * * * * //

dimensions      [0 1 -1 1 0 0 0];

internalField   nonuniform List<vector> 
100
(
(-0.000839233 -0.000839233 0)
(-0.00160217 -0.000228882 0)
(-0.000228882 0.00038147 0)
(0.00038147 0.000686646 0)
(-0.00152588 0.00038147 0)
(-0.00137329 7.62939e-05 0)
(0.00038147 -7.62939e-05 0)
(0.000305176 0 0)
(0.000305176 0 0)
(0.00038147 0.000152588 0)
(-7.62939e-05 -0.00160217 0)
(-0.000457764 -0.000305176 0)
(0.000534058 0.00114441 0)
(0.000305176 0.0012207 0)
(-0.00213623 7.62939e-05 0)
(-0.00167847 0.000457764 0)
(0.000305176 0.000457764 0)
(0.000305176 0.000228882 0)
(0.000305176 0.000686646 0)
(0.000457764 0.000152588 0)
(0.000534058 -0.000305176 0)
(0.0012207 0 0)
(0.0012207 0.000762939 0)
(-0.000686646 0.000152588 0)
(-0.00221252 0.000228882 0)
(-0.000991821 0.000991821 0)
(0.000228882 0.000610352 0)
(0.000457764 -7.62939e-05 0)
(0.000228882 0.000686646 0)
(0 0.000457764 0)
(0.000305176 0.000839233 0)
(0.000534058 0.00038147 0)
(0.000686646 -0.00038147 0)
(-0.000228882 -0.000762939 0)
(-0.0012207 -0.000305176 0)
(-0.00144958 0.000228882 0)
(-0.000762939 -0.000305176 0)
(0.00038147 -0.000457764 0)
(0.000839233 7.62939e-05 0)
(0.00038147 -0.00038147 0)
(0.000152588 -0.000228882 0)
(0 -0.000152588 0)
(0.000305176 -0.000839233 0)
(-0.000686646 -0.000839233 0)
(-0.00152588 -0.00106812 0)
(-0.000839233 -0.000305176 0)
(-0.00038147 -0.000305176 0)
(0.000762939 0 0)
(0.000305176 0 0)
(-0.000534058 -0.000915527 0)
(0.000305176 7.62939e-05 0)
(-0.000228882 7.62939e-05 0)
(0 -0.000152588 0)
(-0.00038147 0 0)
(-0.000610352 0.000762939 0)
(-0.000686646 0.00106812 0)
(-0.000686646 0.000839233 0)
(0.000915527 0.000305176 0)
(-7.62939e-05 -0.00038147 0)
(-0.000839233 -0.000457764 0)
(0.000228882 0.00114441 0)
(-7.62939e-05 0.001297 0)
(0 0.00152588 0)
(0.000305176 0.000686646 0)
(-0.000457764 0.001297 0)
(-0.000839233 0.000839233 0)
(-0.00106812 0.00106812 0)
(-0.00038147 0.000839233 0)
(-0.00038147 0 0)
(-0.000534058 -0.000534058 0)
(0.000152588 0.00144958 0)
(0.000152588 0.00152588 0)
(-0.000610352 0.00175476 0)
(-0.000610352 0.000839233 0)
(-0.000228882 0.000686646 0)
(-0.000915527 0.000686646 0)
(-0.000610352 0.000762939 0)
(-0.00038147 0.000915527 0)
(-0.00152588 -0.00038147 0)
(-0.001297 -0.0012207 0)
(0.000534058 0.0012207 0)
(0.000152588 0.000991821 0)
(-0.000534058 0.000457764 0)
(-0.000915527 0.000686646 0)
(-0.000686646 0.000152588 0)
(-0.000762939 -7.62939e-05 0)
(-0.000915527 0.000457764 0)
(-0.00144958 -0.000534058 0)
(-0.00236511 -0.00175476 0)
(-0.00137329 -0.000915527 0)
(0 0.000534058 0)
(-0.000686646 0.000152588 0)
(-0.000686646 -0.000305176 0)
(-0.000762939 7.62939e-05 0)
(-0.0012207 -7.62939e-05 0)
(-0.000686646 -0.000457764 0)
(-0.00106812 -0.000152588 0)
(-0.0025177 -0.000534058 0)
(-0.00205994 -0.0012207 0)
(-0.000457764 -0.000305176 0)
)
;

boundaryField
{
    left
    {
        type            calculated;
        value           nonuniform List<vector> 10((0 -0.000839233 0) (0 -0.00160217 0) (0 -0.000305176 0) (0 0.000839233 0) (0 -0.000228882 0) (0 7.62939e-05 0) (0 0.00114441 0) (0 0.00144958 0) (0 0.0012207 0) (0 0.000534058 0));
    }
    right
    {
        type            calculated;
        value           nonuniform List<vector> 10((0 0.000152588 0) (0 0.000152588 0) (0 0.000457764 0) (0 -0.00038147 0) (0 -0.000915527 0) (0 -0.000457764 0) (0 -0.000534058 0) (0 -0.0012207 0) (0 -0.000915527 0) (0 -0.000305176 0));
    }
    top
    {
        type            calculated;
        value           nonuniform List<vector> 10((0 0 0) (-0.000686646 0 0) (-0.000686646 0 0) (-0.000762939 0 0) (-0.0012207 0 0) (-0.000686646 0 0) (-0.00106812 0 0) (-0.0025177 0 0) (-0.00205994 0 0) (-0.000457764 0 0));
    }
    bottom
    {
        type            calculated;
        value           nonuniform List<vector> 10((-0.000839233 0 0) (-0.00160217 0 0) (-0.000228882 0 0) (0.00038147 0 0) (-0.00152588 0 0) (-0.00137329 0 0) (0.00038147 0 0) (0.000305176 0 0) (0.000305176 0 0) (0.00038147 0 0));
    }
    defaultFaces
    {
        type            empty;
    }
}


// ************************************************************************* //
