/*--------------------------------*- C++ -*----------------------------------*\
| =========                 |                                                 |
| \\      /  F ield         | OpenFOAM: The Open Source CFD Toolbox           |
|  \\    /   O peration     | Version:  2406                                  |
|   \\  /    A nd           | Website:  www.openfoam.com                      |
|    \\/     M anipulation  |                                                 |
\*---------------------------------------------------------------------------*/
FoamFile
{
    version     2.0;
    format      ascii;
    arch        "LSB;label=32;scalar=64";
    class       volScalarField;
    location    "3.7";
    object      gradTy;
}
// * * * * * * * * * * * * * * * * * * * * * * * * * * * * * * * * * * * * * //

dimensions      [0 -1 0 1 0 0 0];

internalField   nonuniform List<scalar> 
100
(
-0.00524521
-0.00190735
0.00238419
0.00429153
0
0
0.00143051
0.000953674
0.000476837
-0.00143051
-0.0109673
-0.00143051
0.00715256
0.00572205
0.00143051
0.000476837
0.00286102
0.000953674
0.00286102
0
-0.00238419
0.000476837
0.00286102
0.000953674
0.000953674
0.00333786
0.00238419
-0.000476837
0.00333786
0.00190735
0.00476837
0.000476837
-0.0038147
-0.00429153
-0.00238419
-0.000476837
-0.00286102
-0.00238419
0.000476837
-0.00238419
-0.000476837
-0.00238419
-0.00619888
-0.00572205
-0.00572205
-0.00190735
-0.00238419
0.000476837
0.000476837
-0.00429153
0.000476837
0.000476837
-0.000953674
-0.000476837
0.00333786
0.00572205
0.0038147
0.00143051
-0.000476837
-0.00190735
0.00619888
0.00762939
0.00905991
0.00619888
0.00667572
0.00619888
0.00524521
0.00333786
0
-0.00238419
0.00715256
0.00953674
0.0128746
0.00667572
0.00524521
0.00429153
0.00429153
0.0038147
-0.00238419
-0.00524521
0.00619888
0.0038147
0.00286102
0.00429153
0.00286102
-0.000953674
0.000476837
-0.000953674
-0.00905991
-0.00476837
0.00238419
0
-0.00238419
0.000476837
-0.000953674
-0.00238419
-0.000953674
-0.00190735
-0.00572205
-0.00190735
)
;

boundaryField
{
    left
    {
        type            calculated;
        value           nonuniform List<scalar> 10(-0.00524521 -0.0109673 -0.00238419 0.00476837 -0.000476837 0.000476837 0.00619888 0.00715256 0.00619888 0.00238419);
    }
    right
    {
        type            calculated;
        value           nonuniform List<scalar> 10(-0.00143051 0 0.00190735 -0.00238419 -0.00429153 -0.00190735 -0.00238419 -0.00524521 -0.00476837 -0.00190735);
    }
    top
    {
        type            calculated;
        value           uniform 0;
    }
    bottom
    {
        type            calculated;
        value           uniform 0;
    }
    defaultFaces
    {
        type            empty;
    }
}


// ************************************************************************* //
