/*--------------------------------*- C++ -*----------------------------------*\
| =========                 |                                                 |
| \\      /  F ield         | OpenFOAM: The Open Source CFD Toolbox           |
|  \\    /   O peration     | Version:  2406                                  |
|   \\  /    A nd           | Website:  www.openfoam.com                      |
|    \\/     M anipulation  |                                                 |
\*---------------------------------------------------------------------------*/
FoamFile
{
    version     2.0;
    format      ascii;
    arch        "LSB;label=32;scalar=64";
    class       volScalarField;
    location    "9.25";
    object      gradTx;
}
// * * * * * * * * * * * * * * * * * * * * * * * * * * * * * * * * * * * * * //

dimensions      [0 -1 0 1 0 0 0];

internalField   nonuniform List<scalar> 
100
(
-2.07526e+22
-4.61169e+22
-4.61169e+21
9.22337e+21
-4.84227e+22
-3.68935e+22
-4.61169e+21
6.91753e+21
9.22337e+21
6.91753e+21
-6.91753e+21
-1.61409e+22
1.61409e+22
4.61169e+21
-6.91753e+22
-4.61169e+22
9.22337e+21
2.30584e+21
9.22337e+21
1.15292e+22
1.38351e+22
2.9976e+22
3.22818e+22
-2.30584e+22
-7.3787e+22
-3.22818e+22
9.22337e+21
6.91753e+21
6.91753e+21
2.30584e+21
9.22337e+21
1.15292e+22
1.38351e+22
-1.38351e+22
-4.3811e+22
-4.15052e+22
-2.07526e+22
1.15292e+22
2.53643e+22
1.61409e+22
-4.61169e+21
-4.61169e+21
4.61169e+21
-2.30584e+22
-5.53402e+22
-2.76701e+22
4.61169e+21
2.30584e+22
2.30584e+21
-1.15292e+22
6.91753e+21
-9.22337e+21
2.30584e+21
-1.15292e+22
-3.22818e+22
-2.76701e+22
-1.38351e+22
2.76701e+22
2.30584e+21
-1.84467e+22
2.30584e+21
-9.22337e+21
2.30584e+21
4.61169e+21
-2.07526e+22
-2.9976e+22
-2.76701e+22
-4.61169e+21
-2.07526e+22
-2.30584e+22
4.61169e+21
-2.30584e+21
-1.84467e+22
-1.15292e+22
-1.38351e+22
-3.68935e+22
-2.53643e+22
-1.15292e+22
-3.91993e+22
-3.22818e+22
1.38351e+22
6.91753e+21
-1.84467e+22
-2.9976e+22
-2.07526e+22
-2.07526e+22
-2.30584e+22
-4.15052e+22
-7.14811e+22
-4.3811e+22
0
-1.84467e+22
-1.15292e+22
-1.84467e+22
-3.68935e+22
-2.07526e+22
-2.9976e+22
-6.91753e+22
-5.76461e+22
-2.07526e+22
)
;

boundaryField
{
    left
    {
        type            calculated;
        value           uniform 0;
    }
    right
    {
        type            calculated;
        value           uniform 0;
    }
    top
    {
        type            calculated;
        value           nonuniform List<scalar> 10(0 -1.84467e+22 -1.15292e+22 -1.84467e+22 -3.68935e+22 -2.07526e+22 -2.9976e+22 -6.91753e+22 -5.76461e+22 -2.07526e+22);
    }
    bottom
    {
        type            calculated;
        value           nonuniform List<scalar> 10(-2.07526e+22 -4.61169e+22 -4.61169e+21 9.22337e+21 -4.84227e+22 -3.68935e+22 -4.61169e+21 6.91753e+21 9.22337e+21 6.91753e+21);
    }
    defaultFaces
    {
        type            empty;
    }
}


// ************************************************************************* //
