/*--------------------------------*- C++ -*----------------------------------*\
| =========                 |                                                 |
| \\      /  F ield         | OpenFOAM: The Open Source CFD Toolbox           |
|  \\    /   O peration     | Version:  2406                                  |
|   \\  /    A nd           | Website:  www.openfoam.com                      |
|    \\/     M anipulation  |                                                 |
\*---------------------------------------------------------------------------*/
FoamFile
{
    version     2.0;
    format      ascii;
    arch        "LSB;label=32;scalar=64";
    class       volVectorField;
    location    "3.9";
    object      flux;
}
// * * * * * * * * * * * * * * * * * * * * * * * * * * * * * * * * * * * * * //

dimensions      [0 1 -1 1 0 0 0];

internalField   nonuniform List<vector> 
100
(
(-0.00137329 -0.00137329 0)
(-0.00274658 -0.000305176 0)
(-0.000305176 0.000610352 0)
(0.000305176 0.0012207 0)
(-0.00228882 0.000610352 0)
(-0.00198364 -0.000305176 0)
(0 0.000305176 0)
(0.000457764 0.000457764 0)
(0.000762939 0 0)
(0.000915527 0.000152588 0)
(-0.000152588 -0.00289917 0)
(-0.000762939 -0.000610352 0)
(0.000915527 0.00198364 0)
(0.000457764 0.00183105 0)
(-0.0038147 0.000610352 0)
(-0.00213623 0.000457764 0)
(0.000457764 0.000762939 0)
(0.000152588 0.000762939 0)
(0.000610352 0.0012207 0)
(0.000915527 0.000457764 0)
(0.000915527 -0.000457764 0)
(0.00198364 0.000305176 0)
(0.00198364 0.00152588 0)
(-0.000762939 0.000305176 0)
(-0.00396729 0.000457764 0)
(-0.00198364 0.00137329 0)
(0.000610352 0.000762939 0)
(0.000610352 -0.000457764 0)
(0.000457764 0.000915527 0)
(0.000305176 0.000762939 0)
(0.000610352 0.00167847 0)
(0.00106812 0.000762939 0)
(0.00106812 -0.000762939 0)
(-0.000610352 -0.00106812 0)
(-0.00228882 -0.000915527 0)
(-0.00213623 0.000152588 0)
(-0.0012207 -0.000457764 0)
(0.000610352 -0.000457764 0)
(0.00152588 0 0)
(0.000762939 -0.0012207 0)
(0 -0.000457764 0)
(-0.000457764 -0.000610352 0)
(0.000457764 -0.00167847 0)
(-0.0012207 -0.00167847 0)
(-0.00274658 -0.00183105 0)
(-0.00137329 -0.000457764 0)
(-0.000152588 -0.000457764 0)
(0.000915527 -0.000305176 0)
(0 0.000305176 0)
(-0.000762939 -0.00167847 0)
(0.000457764 0 0)
(-0.000305176 0.000152588 0)
(-0.000152588 0 0)
(-0.000610352 0 0)
(-0.0012207 0.00137329 0)
(-0.000762939 0.00228882 0)
(-0.0012207 0.000915527 0)
(0.00137329 0.000457764 0)
(0 -0.000610352 0)
(-0.00106812 -0.000762939 0)
(0.000305176 0.00228882 0)
(-0.000305176 0.00213623 0)
(0 0.00213623 0)
(0.000305176 0.00137329 0)
(-0.000610352 0.00228882 0)
(-0.00152588 0.00152588 0)
(-0.00183105 0.00198364 0)
(-0.000762939 0.00152588 0)
(-0.000915527 0 0)
(-0.0012207 -0.00106812 0)
(0.000152588 0.00198364 0)
(-0.000152588 0.00274658 0)
(-0.00106812 0.00305176 0)
(-0.000457764 0.00137329 0)
(-0.000915527 0.0012207 0)
(-0.00137329 0.00106812 0)
(-0.00106812 0.00137329 0)
(-0.000610352 0.00137329 0)
(-0.00259399 -0.000457764 0)
(-0.00213623 -0.00152588 0)
(0.0012207 0.00167847 0)
(0.000457764 0.00137329 0)
(-0.0012207 0.00106812 0)
(-0.00167847 0.00137329 0)
(-0.000915527 0.000457764 0)
(-0.00137329 0 0)
(-0.00152588 0.000762939 0)
(-0.00259399 -0.000762939 0)
(-0.00396729 -0.00274658 0)
(-0.00213623 -0.00137329 0)
(0 0.000915527 0)
(-0.000762939 -0.000152588 0)
(-0.000610352 -0.000305176 0)
(-0.00137329 0.000457764 0)
(-0.00198364 0 0)
(-0.0012207 -0.000457764 0)
(-0.00167847 0.000152588 0)
(-0.00427246 -0.000762939 0)
(-0.00335693 -0.00152588 0)
(-0.000915527 -0.000305176 0)
)
;

boundaryField
{
    left
    {
        type            calculated;
        value           nonuniform List<vector> 10((0 -0.00137329 0) (0 -0.00289917 0) (0 -0.000457764 0) (0 0.00167847 0) (0 -0.000457764 0) (0 0 0) (0 0.00228882 0) (0 0.00198364 0) (0 0.00167847 0) (0 0.000915527 0));
    }
    right
    {
        type            calculated;
        value           nonuniform List<vector> 10((0 0.000152588 0) (0 0.000457764 0) (0 0.000762939 0) (0 -0.0012207 0) (0 -0.00167847 0) (0 -0.000762939 0) (0 -0.00106812 0) (0 -0.00152588 0) (0 -0.00137329 0) (0 -0.000305176 0));
    }
    top
    {
        type            calculated;
        value           nonuniform List<vector> 10((0 0 0) (-0.000762939 0 0) (-0.000610352 0 0) (-0.00137329 0 0) (-0.00198364 0 0) (-0.0012207 0 0) (-0.00167847 0 0) (-0.00427246 0 0) (-0.00335693 0 0) (-0.000915527 0 0));
    }
    bottom
    {
        type            calculated;
        value           nonuniform List<vector> 10((-0.00137329 0 0) (-0.00274658 0 0) (-0.000305176 0 0) (0.000305176 0 0) (-0.00228882 0 0) (-0.00198364 0 0) (0 0 0) (0.000457764 0 0) (0.000762939 0 0) (0.000915527 0 0));
    }
    defaultFaces
    {
        type            empty;
    }
}


// ************************************************************************* //
