/*--------------------------------*- C++ -*----------------------------------*\
| =========                 |                                                 |
| \\      /  F ield         | OpenFOAM: The Open Source CFD Toolbox           |
|  \\    /   O peration     | Version:  2406                                  |
|   \\  /    A nd           | Website:  www.openfoam.com                      |
|    \\/     M anipulation  |                                                 |
\*---------------------------------------------------------------------------*/
FoamFile
{
    version     2.0;
    format      ascii;
    arch        "LSB;label=32;scalar=64";
    class       volScalarField;
    location    "3.9";
    object      gradTx;
}
// * * * * * * * * * * * * * * * * * * * * * * * * * * * * * * * * * * * * * //

dimensions      [0 -1 0 1 0 0 0];

internalField   nonuniform List<scalar> 
100
(
-0.0343323
-0.0686646
-0.00762939
0.00762939
-0.0572205
-0.0495911
0
0.0114441
0.0190735
0.0228882
-0.0038147
-0.0190735
0.0228882
0.0114441
-0.0953674
-0.0534058
0.0114441
0.0038147
0.0152588
0.0228882
0.0228882
0.0495911
0.0495911
-0.0190735
-0.0991821
-0.0495911
0.0152588
0.0152588
0.0114441
0.00762939
0.0152588
0.0267029
0.0267029
-0.0152588
-0.0572205
-0.0534058
-0.0305176
0.0152588
0.038147
0.0190735
0
-0.0114441
0.0114441
-0.0305176
-0.0686646
-0.0343323
-0.0038147
0.0228882
0
-0.0190735
0.0114441
-0.00762939
-0.0038147
-0.0152588
-0.0305176
-0.0190735
-0.0305176
0.0343323
0
-0.0267029
0.00762939
-0.00762939
0
0.00762939
-0.0152588
-0.038147
-0.0457764
-0.0190735
-0.0228882
-0.0305176
0.0038147
-0.0038147
-0.0267029
-0.0114441
-0.0228882
-0.0343323
-0.0267029
-0.0152588
-0.0648499
-0.0534058
0.0305176
0.0114441
-0.0305176
-0.0419617
-0.0228882
-0.0343323
-0.038147
-0.0648499
-0.0991821
-0.0534058
0
-0.0190735
-0.0152588
-0.0343323
-0.0495911
-0.0305176
-0.0419617
-0.106812
-0.0839233
-0.0228882
)
;

boundaryField
{
    left
    {
        type            calculated;
        value           uniform 0;
    }
    right
    {
        type            calculated;
        value           uniform 0;
    }
    top
    {
        type            calculated;
        value           nonuniform List<scalar> 10(0 -0.0190735 -0.0152588 -0.0343323 -0.0495911 -0.0305176 -0.0419617 -0.106812 -0.0839233 -0.0228882);
    }
    bottom
    {
        type            calculated;
        value           nonuniform List<scalar> 10(-0.0343323 -0.0686646 -0.00762939 0.00762939 -0.0572205 -0.0495911 0 0.0114441 0.0190735 0.0228882);
    }
    defaultFaces
    {
        type            empty;
    }
}


// ************************************************************************* //
