/*--------------------------------*- C++ -*----------------------------------*\
| =========                 |                                                 |
| \\      /  F ield         | OpenFOAM: The Open Source CFD Toolbox           |
|  \\    /   O peration     | Version:  2406                                  |
|   \\  /    A nd           | Website:  www.openfoam.com                      |
|    \\/     M anipulation  |                                                 |
\*---------------------------------------------------------------------------*/
FoamFile
{
    version     2.0;
    format      ascii;
    arch        "LSB;label=32;scalar=64";
    class       volScalarField;
    location    "1.5";
    object      gradTy;
}
// * * * * * * * * * * * * * * * * * * * * * * * * * * * * * * * * * * * * * //

dimensions      [0 -1 0 1 0 0 0];

internalField   nonuniform List<scalar> 
100
(
-4.996e-13
-3.33067e-13
2.77556e-13
5.55112e-13
1.66533e-13
-1.11022e-13
1.11022e-13
5.55112e-14
0
-1.66533e-13
-1.27676e-12
-4.44089e-13
9.4369e-13
9.99201e-13
3.33067e-13
2.77556e-13
4.996e-13
2.77556e-13
4.996e-13
0
-2.77556e-13
2.22045e-13
2.77556e-13
1.66533e-13
2.77556e-13
9.99201e-13
2.77556e-13
-1.66533e-13
4.44089e-13
2.77556e-13
7.21645e-13
1.11022e-13
-4.996e-13
-6.66134e-13
-5.55112e-13
1.66533e-13
-3.33067e-13
-1.66533e-13
0
-5.55112e-13
-3.88578e-13
-3.88578e-13
-7.77156e-13
-8.32667e-13
-7.77156e-13
-4.44089e-13
-2.22045e-13
1.66533e-13
2.22045e-13
-6.10623e-13
-3.33067e-13
-1.11022e-13
-1.66533e-13
-5.55112e-14
6.10623e-13
7.21645e-13
8.32667e-13
4.44089e-13
-5.55112e-14
-2.22045e-13
4.996e-13
8.88178e-13
1.05471e-12
5.55112e-13
1.11022e-12
1.05471e-12
9.4369e-13
4.996e-13
-5.55112e-14
-4.44089e-13
7.21645e-13
1.27676e-12
1.27676e-12
6.66134e-13
6.10623e-13
7.21645e-13
4.996e-13
4.44089e-13
-3.88578e-13
-9.99201e-13
7.77156e-13
7.21645e-13
3.88578e-13
6.10623e-13
5.55112e-14
-3.33067e-13
2.22045e-13
-3.88578e-13
-1.38778e-12
-7.77156e-13
3.88578e-13
-1.11022e-13
-3.88578e-13
0
-1.11022e-13
-6.10623e-13
-5.55112e-14
-6.10623e-13
-9.4369e-13
-2.22045e-13
)
;

boundaryField
{
    left
    {
        type            calculated;
        value           nonuniform List<scalar> 10(-4.996e-13 -1.27676e-12 -2.77556e-13 7.21645e-13 -3.88578e-13 -3.33067e-13 4.996e-13 7.21645e-13 7.77156e-13 3.88578e-13);
    }
    right
    {
        type            calculated;
        value           nonuniform List<scalar> 10(-1.66533e-13 0 2.77556e-13 -5.55112e-13 -6.10623e-13 -2.22045e-13 -4.44089e-13 -9.99201e-13 -7.77156e-13 -2.22045e-13);
    }
    top
    {
        type            calculated;
        value           uniform 0;
    }
    bottom
    {
        type            calculated;
        value           uniform 0;
    }
    defaultFaces
    {
        type            empty;
    }
}


// ************************************************************************* //
