/*--------------------------------*- C++ -*----------------------------------*\
| =========                 |                                                 |
| \\      /  F ield         | OpenFOAM: The Open Source CFD Toolbox           |
|  \\    /   O peration     | Version:  2406                                  |
|   \\  /    A nd           | Website:  www.openfoam.com                      |
|    \\/     M anipulation  |                                                 |
\*---------------------------------------------------------------------------*/
FoamFile
{
    version     2.0;
    format      ascii;
    arch        "LSB;label=32;scalar=64";
    class       volScalarField;
    location    "1.5";
    object      T;
}
// * * * * * * * * * * * * * * * * * * * * * * * * * * * * * * * * * * * * * //

dimensions      [0 0 0 1 0 0 0];

internalField   nonuniform List<scalar> 
100
(
48.1857
48.1857
48.1857
48.1857
48.1857
48.1857
48.1857
48.1857
48.1857
48.1857
48.1857
48.1857
48.1857
48.1857
48.1857
48.1857
48.1857
48.1857
48.1857
48.1857
48.1857
48.1857
48.1857
48.1857
48.1857
48.1857
48.1857
48.1857
48.1857
48.1857
48.1857
48.1857
48.1857
48.1857
48.1857
48.1857
48.1857
48.1857
48.1857
48.1857
48.1857
48.1857
48.1857
48.1857
48.1857
48.1857
48.1857
48.1857
48.1857
48.1857
48.1857
48.1857
48.1857
48.1857
48.1857
48.1857
48.1857
48.1857
48.1857
48.1857
48.1857
48.1857
48.1857
48.1857
48.1857
48.1857
48.1857
48.1857
48.1857
48.1857
48.1857
48.1857
48.1857
48.1857
48.1857
48.1857
48.1857
48.1857
48.1857
48.1857
48.1857
48.1857
48.1857
48.1857
48.1857
48.1857
48.1857
48.1857
48.1857
48.1857
48.1857
48.1857
48.1857
48.1857
48.1857
48.1857
48.1857
48.1857
48.1857
48.1857
)
;

boundaryField
{
    left
    {
        type            zeroGradient;
    }
    right
    {
        type            zeroGradient;
    }
    top
    {
        type            zeroGradient;
    }
    bottom
    {
        type            zeroGradient;
    }
    defaultFaces
    {
        type            empty;
    }
}


// ************************************************************************* //
