/*--------------------------------*- C++ -*----------------------------------*\
| =========                 |                                                 |
| \\      /  F ield         | OpenFOAM: The Open Source CFD Toolbox           |
|  \\    /   O peration     | Version:  2406                                  |
|   \\  /    A nd           | Website:  www.openfoam.com                      |
|    \\/     M anipulation  |                                                 |
\*---------------------------------------------------------------------------*/
FoamFile
{
    version     2.0;
    format      ascii;
    arch        "LSB;label=32;scalar=64";
    class       volScalarField;
    location    "1";
    object      gradTy;
}
// * * * * * * * * * * * * * * * * * * * * * * * * * * * * * * * * * * * * * //

dimensions      [0 -1 0 1 0 0 0];

internalField   nonuniform List<scalar> 
100
(
-4.33681e-15
0
1.30104e-15
2.60209e-15
4.33681e-16
-8.67362e-16
0
0
-4.33681e-16
-4.33681e-16
-7.80626e-15
-1.73472e-15
4.77049e-15
5.63785e-15
8.67362e-16
4.33681e-16
1.73472e-15
4.33681e-16
3.03577e-15
0
0
0
3.03577e-15
0
1.30104e-15
4.33681e-15
1.30104e-15
-1.30104e-15
3.46945e-15
8.67362e-16
3.03577e-15
1.73472e-15
-3.03577e-15
-4.33681e-15
-2.1684e-15
8.67362e-16
-1.73472e-15
-3.46945e-15
8.67362e-16
-3.03577e-15
-3.46945e-15
-2.60209e-15
-5.20417e-15
-3.90313e-15
-4.33681e-15
-3.03577e-15
-2.1684e-15
0
-8.67362e-16
-4.77049e-15
-3.46945e-15
-1.73472e-15
-8.67362e-16
-1.30104e-15
3.46945e-15
6.07153e-15
4.33681e-15
3.90313e-15
-1.30104e-15
-8.67362e-16
1.73472e-15
4.33681e-15
4.33681e-15
1.73472e-15
4.33681e-15
5.63785e-15
6.07153e-15
4.33681e-15
8.67362e-16
-2.1684e-15
3.90313e-15
5.63785e-15
6.93889e-15
3.03577e-15
2.60209e-15
3.46945e-15
3.90313e-15
2.60209e-15
-1.73472e-15
-6.93889e-15
5.63785e-15
1.73472e-15
1.73472e-15
1.73472e-15
0
-1.73472e-15
1.30104e-15
-1.30104e-15
-7.80626e-15
-3.90313e-15
3.90313e-15
-1.30104e-15
-2.1684e-15
8.67362e-16
-4.33681e-16
-3.46945e-15
-1.73472e-15
-3.46945e-15
-4.33681e-15
1.30104e-15
)
;

boundaryField
{
    left
    {
        type            calculated;
        value           nonuniform List<scalar> 10(-4.33681e-15 -7.80626e-15 0 3.03577e-15 -3.46945e-15 -3.46945e-15 1.73472e-15 3.90313e-15 5.63785e-15 3.90313e-15);
    }
    right
    {
        type            calculated;
        value           nonuniform List<scalar> 10(-4.33681e-16 0 8.67362e-16 -3.03577e-15 -4.77049e-15 -8.67362e-16 -2.1684e-15 -6.93889e-15 -3.90313e-15 1.30104e-15);
    }
    top
    {
        type            calculated;
        value           uniform 0;
    }
    bottom
    {
        type            calculated;
        value           uniform 0;
    }
    defaultFaces
    {
        type            empty;
    }
}


// ************************************************************************* //
