/*--------------------------------*- C++ -*----------------------------------*\
| =========                 |                                                 |
| \\      /  F ield         | OpenFOAM: The Open Source CFD Toolbox           |
|  \\    /   O peration     | Version:  2406                                  |
|   \\  /    A nd           | Website:  www.openfoam.com                      |
|    \\/     M anipulation  |                                                 |
\*---------------------------------------------------------------------------*/
FoamFile
{
    version     2.0;
    format      ascii;
    arch        "LSB;label=32;scalar=64";
    class       volVectorField;
    location    "7.75";
    object      flux;
}
// * * * * * * * * * * * * * * * * * * * * * * * * * * * * * * * * * * * * * //

dimensions      [0 1 -1 1 0 0 0];

internalField   nonuniform List<vector> 
100
(
(-2.19902e+14 -1.75922e+14 0)
(-3.73834e+14 2.19902e+13 0)
(-2.19902e+13 8.79609e+13 0)
(1.09951e+14 1.97912e+14 0)
(-3.07863e+14 8.79609e+13 0)
(-2.85873e+14 -2.19902e+13 0)
(0 0 0)
(-6.59707e+13 2.19902e+13 0)
(1.53932e+14 0 0)
(1.31941e+14 2.19902e+13 0)
(-2.19902e+13 -3.07863e+14 0)
(-1.09951e+14 0 0)
(1.75922e+14 3.29853e+14 0)
(4.39805e+13 3.07863e+14 0)
(-5.27766e+14 8.79609e+13 0)
(-3.29853e+14 4.39805e+13 0)
(4.39805e+13 8.79609e+13 0)
(-2.19902e+13 1.31941e+14 0)
(8.79609e+13 2.19902e+14 0)
(1.53932e+14 6.59707e+13 0)
(8.79609e+13 8.79609e+13 0)
(2.19902e+14 8.79609e+13 0)
(3.07863e+14 2.41893e+14 0)
(-1.09951e+14 8.79609e+13 0)
(-5.93736e+14 8.79609e+13 0)
(-2.85873e+14 2.41893e+14 0)
(2.19902e+13 1.09951e+14 0)
(1.31941e+14 2.19902e+13 0)
(6.59707e+13 2.19902e+14 0)
(-2.19902e+13 8.79609e+13 0)
(0 2.85873e+14 0)
(6.59707e+13 1.97912e+14 0)
(1.09951e+14 -8.79609e+13 0)
(-8.79609e+13 -1.31941e+14 0)
(-3.73834e+14 -1.53932e+14 0)
(-3.07863e+14 6.59707e+13 0)
(-1.31941e+14 0 0)
(4.39805e+13 -2.19902e+13 0)
(1.53932e+14 0 0)
(4.39805e+13 -8.79609e+13 0)
(-2.19902e+13 -4.39805e+13 0)
(-1.31941e+14 -4.39805e+13 0)
(2.19902e+13 -1.97912e+14 0)
(-1.97912e+14 -1.75922e+14 0)
(-3.73834e+14 -2.19902e+14 0)
(-1.53932e+14 -4.39805e+13 0)
(-6.59707e+13 -6.59707e+13 0)
(1.09951e+14 2.19902e+13 0)
(4.39805e+13 6.59707e+13 0)
(-1.31941e+14 -1.53932e+14 0)
(4.39805e+13 -6.59707e+13 0)
(-1.75922e+14 4.39805e+13 0)
(-2.19902e+13 2.19902e+13 0)
(-6.59707e+13 2.19902e+13 0)
(-2.19902e+14 2.19902e+14 0)
(-1.75922e+14 2.85873e+14 0)
(-1.09951e+14 1.75922e+14 0)
(1.97912e+14 1.31941e+14 0)
(-2.19902e+13 -2.19902e+13 0)
(-1.53932e+14 -4.39805e+13 0)
(8.79609e+13 2.41893e+14 0)
(4.39805e+13 3.07863e+14 0)
(-4.39805e+13 3.95824e+14 0)
(0 1.97912e+14 0)
(-1.31941e+14 3.07863e+14 0)
(-1.75922e+14 2.63883e+14 0)
(-1.53932e+14 3.95824e+14 0)
(-1.31941e+14 2.19902e+14 0)
(-1.31941e+14 4.39805e+13 0)
(-1.75922e+14 -1.53932e+14 0)
(6.59707e+13 3.29853e+14 0)
(0 4.17814e+14 0)
(-1.75922e+14 4.39805e+14 0)
(-1.31941e+14 2.41893e+14 0)
(-1.31941e+14 2.63883e+14 0)
(-1.09951e+14 2.63883e+14 0)
(-1.53932e+14 2.19902e+14 0)
(-1.53932e+14 2.41893e+14 0)
(-4.17814e+14 0 0)
(-3.07863e+14 -2.41893e+14 0)
(1.97912e+14 1.75922e+14 0)
(1.31941e+14 1.75922e+14 0)
(-1.97912e+14 1.53932e+14 0)
(-2.19902e+14 2.19902e+14 0)
(-1.09951e+14 1.09951e+14 0)
(-1.97912e+14 2.19902e+13 0)
(-1.97912e+14 6.59707e+13 0)
(-3.07863e+14 -6.59707e+13 0)
(-6.37717e+14 -3.07863e+14 0)
(-4.17814e+14 -1.75922e+14 0)
(6.59707e+13 1.53932e+14 0)
(-8.79609e+13 -4.39805e+13 0)
(-4.39805e+13 -6.59707e+13 0)
(-1.75922e+14 1.09951e+14 0)
(-3.07863e+14 0 0)
(-1.75922e+14 -4.39805e+13 0)
(-2.19902e+14 0 0)
(-5.27766e+14 -8.79609e+13 0)
(-5.05775e+14 -1.97912e+14 0)
(-1.97912e+14 4.39805e+13 0)
)
;

boundaryField
{
    left
    {
        type            calculated;
        value           nonuniform List<vector> 10((0 -1.75922e+14 0) (0 -3.07863e+14 0) (0 8.79609e+13 0) (0 2.85873e+14 0) (0 -4.39805e+13 0) (0 -6.59707e+13 0) (0 2.41893e+14 0) (0 3.29853e+14 0) (0 1.75922e+14 0) (0 1.53932e+14 0));
    }
    right
    {
        type            calculated;
        value           nonuniform List<vector> 10((0 2.19902e+13 0) (0 6.59707e+13 0) (0 8.79609e+13 0) (0 -8.79609e+13 0) (0 -1.53932e+14 0) (0 -4.39805e+13 0) (0 -1.53932e+14 0) (0 -2.41893e+14 0) (0 -1.75922e+14 0) (0 4.39805e+13 0));
    }
    top
    {
        type            calculated;
        value           nonuniform List<vector> 10((6.59707e+13 0 0) (-8.79609e+13 0 0) (-4.39805e+13 0 0) (-1.75922e+14 0 0) (-3.07863e+14 0 0) (-1.75922e+14 0 0) (-2.19902e+14 0 0) (-5.27766e+14 0 0) (-5.05775e+14 0 0) (-1.97912e+14 0 0));
    }
    bottom
    {
        type            calculated;
        value           nonuniform List<vector> 10((-2.19902e+14 0 0) (-3.73834e+14 0 0) (-2.19902e+13 0 0) (1.09951e+14 0 0) (-3.07863e+14 0 0) (-2.85873e+14 0 0) (0 0 0) (-6.59707e+13 0 0) (1.53932e+14 0 0) (1.31941e+14 0 0));
    }
    defaultFaces
    {
        type            empty;
    }
}


// ************************************************************************* //
