/*--------------------------------*- C++ -*----------------------------------*\
| =========                 |                                                 |
| \\      /  F ield         | OpenFOAM: The Open Source CFD Toolbox           |
|  \\    /   O peration     | Version:  2406                                  |
|   \\  /    A nd           | Website:  www.openfoam.com                      |
|    \\/     M anipulation  |                                                 |
\*---------------------------------------------------------------------------*/
FoamFile
{
    version     2.0;
    format      ascii;
    arch        "LSB;label=32;scalar=64";
    class       volVectorField;
    location    "5.2";
    object      flux;
}
// * * * * * * * * * * * * * * * * * * * * * * * * * * * * * * * * * * * * * //

dimensions      [0 1 -1 1 0 0 0];

internalField   nonuniform List<vector> 
100
(
(-720 -480 0)
(-1520 80 0)
(80 400 0)
(640 560 0)
(-1440 160 0)
(-1360 0 0)
(-80 0 0)
(0 400 0)
(720 320 0)
(640 240 0)
(-80 -1360 0)
(-480 0 0)
(560 1600 0)
(320 1360 0)
(-2080 240 0)
(-1360 320 0)
(160 560 0)
(320 720 0)
(400 960 0)
(480 240 0)
(560 80 0)
(1200 240 0)
(1360 880 0)
(-640 480 0)
(-2320 320 0)
(-1040 1040 0)
(320 480 0)
(480 -80 0)
(240 1040 0)
(80 720 0)
(80 1040 0)
(400 400 0)
(720 -400 0)
(-240 -720 0)
(-1440 -640 0)
(-1360 320 0)
(-800 -160 0)
(800 -160 0)
(1040 400 0)
(320 -240 0)
(-160 -480 0)
(-80 -320 0)
(480 -1040 0)
(-880 -1120 0)
(-1440 -1120 0)
(-640 -320 0)
(-160 -320 0)
(1120 240 0)
(80 80 0)
(-640 -1040 0)
(320 80 0)
(-240 400 0)
(-160 160 0)
(-400 0 0)
(-640 880 0)
(-480 800 0)
(-320 800 0)
(1200 240 0)
(-240 -480 0)
(-880 -640 0)
(160 1520 0)
(-80 1600 0)
(0 1600 0)
(0 880 0)
(-640 1360 0)
(-720 1040 0)
(-560 1200 0)
(-240 960 0)
(-560 -240 0)
(-720 -720 0)
(320 1520 0)
(-80 1840 0)
(-960 1920 0)
(-640 960 0)
(-240 1040 0)
(-720 880 0)
(-480 880 0)
(-400 560 0)
(-1840 -480 0)
(-1440 -1120 0)
(640 1040 0)
(240 800 0)
(-800 720 0)
(-880 1040 0)
(-960 320 0)
(-880 -240 0)
(-880 320 0)
(-1440 -720 0)
(-2240 -1760 0)
(-1280 -480 0)
(0 640 0)
(-400 0 0)
(-480 -80 0)
(-1280 320 0)
(-1520 -320 0)
(-720 -560 0)
(-1040 -160 0)
(-2400 -720 0)
(-1680 -1040 0)
(-320 -160 0)
)
;

boundaryField
{
    left
    {
        type            calculated;
        value           nonuniform List<vector> 10((0 -480 0) (0 -1360 0) (0 80 0) (0 1040 0) (0 -480 0) (0 80 0) (0 1520 0) (0 1520 0) (0 1040 0) (0 640 0));
    }
    right
    {
        type            calculated;
        value           nonuniform List<vector> 10((0 240 0) (0 240 0) (0 720 0) (0 -240 0) (0 -1040 0) (0 -640 0) (0 -720 0) (0 -1120 0) (0 -480 0) (0 -160 0));
    }
    top
    {
        type            calculated;
        value           nonuniform List<vector> 10((0 0 0) (-400 0 0) (-480 0 0) (-1280 0 0) (-1520 0 0) (-720 0 0) (-1040 0 0) (-2400 0 0) (-1680 0 0) (-320 0 0));
    }
    bottom
    {
        type            calculated;
        value           nonuniform List<vector> 10((-720 0 0) (-1520 0 0) (80 0 0) (640 0 0) (-1440 0 0) (-1360 0 0) (-80 0 0) (0 0 0) (720 0 0) (640 0 0));
    }
    defaultFaces
    {
        type            empty;
    }
}


// ************************************************************************* //
