/*--------------------------------*- C++ -*----------------------------------*\
| =========                 |                                                 |
| \\      /  F ield         | OpenFOAM: The Open Source CFD Toolbox           |
|  \\    /   O peration     | Version:  2406                                  |
|   \\  /    A nd           | Website:  www.openfoam.com                      |
|    \\/     M anipulation  |                                                 |
\*---------------------------------------------------------------------------*/
FoamFile
{
    version     2.0;
    format      ascii;
    arch        "LSB;label=32;scalar=64";
    class       volScalarField;
    location    "4.35";
    object      gradTx;
}
// * * * * * * * * * * * * * * * * * * * * * * * * * * * * * * * * * * * * * //

dimensions      [0 -1 0 1 0 0 0];

internalField   nonuniform List<scalar> 
100
(
-3.90625
-7.32422
-0.488281
0.976562
-5.85938
-3.41797
0.488281
0.976562
1.95313
1.46484
-1.46484
-2.92969
3.41797
0.488281
-9.76562
-5.37109
2.92969
1.46484
1.95313
2.44141
1.95313
5.85938
5.37109
-3.41797
-9.27734
-3.90625
1.46484
1.95312
1.46484
0.488281
1.46484
1.46484
2.44141
-0.488281
-5.85937
-4.88281
-2.44141
1.46484
4.39453
1.95312
0
-1.46484
1.46484
-2.44141
-6.83594
-3.90625
0.976563
3.90625
0.488281
-1.46484
0
-2.44141
-0.488281
-0.488281
-3.90625
-2.92969
0.488281
3.41797
-0.488281
-2.44141
0.976562
-0.976562
-0.976563
0
-1.46484
-1.95313
-2.44141
-1.95312
-2.92969
-2.92969
0.976562
0
-3.41797
-2.44141
-1.95312
-3.41797
-2.44141
-1.46484
-5.37109
-5.37109
3.41797
1.95312
-3.41797
-4.88281
-2.92969
-3.41797
-3.41797
-5.37109
-9.76563
-4.88281
-0.488281
-0.976562
-0.976563
-5.37109
-6.83594
-3.41797
-3.41797
-9.76562
-7.8125
-0.976562
)
;

boundaryField
{
    left
    {
        type            calculated;
        value           uniform 0;
    }
    right
    {
        type            calculated;
        value           uniform 0;
    }
    top
    {
        type            calculated;
        value           nonuniform List<scalar> 10(-0.488281 -0.976562 -0.976563 -5.37109 -6.83594 -3.41797 -3.41797 -9.76562 -7.8125 -0.976562);
    }
    bottom
    {
        type            calculated;
        value           nonuniform List<scalar> 10(-3.90625 -7.32422 -0.488281 0.976562 -5.85938 -3.41797 0.488281 0.976562 1.95313 1.46484);
    }
    defaultFaces
    {
        type            empty;
    }
}


// ************************************************************************* //
