/*--------------------------------*- C++ -*----------------------------------*\
| =========                 |                                                 |
| \\      /  F ield         | OpenFOAM: The Open Source CFD Toolbox           |
|  \\    /   O peration     | Version:  2406                                  |
|   \\  /    A nd           | Website:  www.openfoam.com                      |
|    \\/     M anipulation  |                                                 |
\*---------------------------------------------------------------------------*/
FoamFile
{
    version     2.0;
    format      ascii;
    arch        "LSB;label=32;scalar=64";
    class       volScalarField;
    location    "7.55";
    object      gradTx;
}
// * * * * * * * * * * * * * * * * * * * * * * * * * * * * * * * * * * * * * //

dimensions      [0 -1 0 1 0 0 0];

internalField   nonuniform List<scalar> 
100
(
-4.12317e+14
-1.09951e+15
0
5.49756e+14
-6.87195e+14
-6.87195e+14
-1.37439e+14
0
3.43597e+14
4.12317e+14
-1.37439e+14
-2.74878e+14
6.87195e+14
2.06158e+14
-1.30567e+15
-6.18475e+14
6.87195e+13
-2.74878e+14
2.74878e+14
4.12317e+14
4.81036e+14
9.62073e+14
7.55914e+14
-5.49756e+14
-1.71799e+15
-6.18475e+14
4.12317e+14
1.37439e+14
-2.06158e+14
-6.87195e+13
1.37439e+14
3.43597e+14
1.37439e+14
-6.18475e+14
-1.09951e+15
-6.87195e+14
-4.12317e+14
0
3.43597e+14
2.74878e+14
-6.87195e+13
-3.43597e+14
-2.74878e+14
-6.87195e+14
-1.16823e+15
-5.49756e+14
-1.37439e+14
2.06158e+14
0
-3.43597e+14
1.37439e+14
-4.81036e+14
-3.43597e+14
-4.81036e+14
-4.81036e+14
-4.12317e+14
-3.43597e+14
6.18475e+14
-1.37439e+14
-4.12317e+14
1.37439e+14
-1.37439e+14
-1.37439e+14
1.37439e+14
-6.18475e+14
-8.24634e+14
-6.87195e+14
-2.06158e+14
-3.43597e+14
-4.12317e+14
2.06158e+14
6.87195e+13
-2.74878e+14
-3.43597e+14
-4.81036e+14
-9.62073e+14
-7.55914e+14
-6.87195e+13
-8.24634e+14
-7.55914e+14
5.49756e+14
3.43597e+14
-3.43597e+14
-6.18475e+14
-5.49756e+14
-6.87195e+14
-8.24634e+14
-1.09951e+15
-1.71799e+15
-9.62073e+14
0
-4.12317e+14
-1.37439e+14
-2.74878e+14
-8.93353e+14
-7.55914e+14
-6.87195e+14
-1.85543e+15
-1.51183e+15
-3.43597e+14
)
;

boundaryField
{
    left
    {
        type            calculated;
        value           uniform 0;
    }
    right
    {
        type            calculated;
        value           uniform 0;
    }
    top
    {
        type            calculated;
        value           nonuniform List<scalar> 10(0 -4.12317e+14 -1.37439e+14 -2.74878e+14 -8.93353e+14 -7.55914e+14 -6.87195e+14 -1.85543e+15 -1.51183e+15 -3.43597e+14);
    }
    bottom
    {
        type            calculated;
        value           nonuniform List<scalar> 10(-4.12317e+14 -1.09951e+15 0 5.49756e+14 -6.87195e+14 -6.87195e+14 -1.37439e+14 0 3.43597e+14 4.12317e+14);
    }
    defaultFaces
    {
        type            empty;
    }
}


// ************************************************************************* //
