/*--------------------------------*- C++ -*----------------------------------*\
| =========                 |                                                 |
| \\      /  F ield         | OpenFOAM: The Open Source CFD Toolbox           |
|  \\    /   O peration     | Version:  2406                                  |
|   \\  /    A nd           | Website:  www.openfoam.com                      |
|    \\/     M anipulation  |                                                 |
\*---------------------------------------------------------------------------*/
FoamFile
{
    version     2.0;
    format      ascii;
    arch        "LSB;label=32;scalar=64";
    class       volScalarField;
    location    "3.25";
    object      gradTy;
}
// * * * * * * * * * * * * * * * * * * * * * * * * * * * * * * * * * * * * * //

dimensions      [0 -1 0 1 0 0 0];

internalField   nonuniform List<scalar> 
100
(
-2.98023e-05
-1.11759e-05
1.11759e-05
3.35276e-05
3.72529e-06
-7.45058e-06
7.45058e-06
0
-1.11759e-05
-7.45058e-06
-7.82311e-05
-1.86265e-05
6.33299e-05
5.58794e-05
1.11759e-05
1.86265e-05
3.72529e-05
3.72529e-06
2.98023e-05
7.45058e-06
-1.86265e-05
3.72529e-06
3.35276e-05
1.11759e-05
1.49012e-05
5.96046e-05
2.23517e-05
3.72529e-06
3.72529e-05
2.23517e-05
4.84288e-05
2.98023e-05
-3.35276e-05
-4.84288e-05
-2.98023e-05
1.49012e-05
-2.23517e-05
-7.45058e-06
7.45058e-06
-1.86265e-05
-3.72529e-06
-1.11759e-05
-5.21541e-05
-5.21541e-05
-5.96046e-05
-2.6077e-05
-1.86265e-05
-1.11759e-05
3.72529e-06
-3.35276e-05
3.72529e-06
1.11759e-05
0
1.11759e-05
4.47035e-05
3.35276e-05
3.72529e-05
1.49012e-05
-1.49012e-05
-1.86265e-05
5.21541e-05
7.07805e-05
8.9407e-05
4.09782e-05
7.07805e-05
6.70552e-05
6.33299e-05
4.84288e-05
-3.72529e-06
-2.98023e-05
6.33299e-05
8.19564e-05
0.000111759
4.84288e-05
4.47035e-05
4.47035e-05
4.84288e-05
1.86265e-05
-1.86265e-05
-5.96046e-05
5.96046e-05
3.35276e-05
2.6077e-05
4.09782e-05
7.45058e-06
-1.49012e-05
3.72529e-06
-1.86265e-05
-8.56817e-05
-4.47035e-05
4.09782e-05
-3.72529e-06
-1.86265e-05
2.23517e-05
-7.45058e-06
-1.86265e-05
-2.6077e-05
-2.6077e-05
-5.21541e-05
-3.72529e-06
)
;

boundaryField
{
    left
    {
        type            calculated;
        value           nonuniform List<scalar> 10(-2.98023e-05 -7.82311e-05 -1.86265e-05 4.84288e-05 -3.72529e-06 3.72529e-06 5.21541e-05 6.33299e-05 5.96046e-05 4.09782e-05);
    }
    right
    {
        type            calculated;
        value           nonuniform List<scalar> 10(-7.45058e-06 7.45058e-06 2.23517e-05 -1.86265e-05 -3.35276e-05 -1.86265e-05 -2.98023e-05 -5.96046e-05 -4.47035e-05 -3.72529e-06);
    }
    top
    {
        type            calculated;
        value           uniform 0;
    }
    bottom
    {
        type            calculated;
        value           uniform 0;
    }
    defaultFaces
    {
        type            empty;
    }
}


// ************************************************************************* //
