/*--------------------------------*- C++ -*----------------------------------*\
| =========                 |                                                 |
| \\      /  F ield         | OpenFOAM: The Open Source CFD Toolbox           |
|  \\    /   O peration     | Version:  2406                                  |
|   \\  /    A nd           | Website:  www.openfoam.com                      |
|    \\/     M anipulation  |                                                 |
\*---------------------------------------------------------------------------*/
FoamFile
{
    version     2.0;
    format      ascii;
    arch        "LSB;label=32;scalar=64";
    class       volScalarField;
    location    "9";
    object      gradTy;
}
// * * * * * * * * * * * * * * * * * * * * * * * * * * * * * * * * * * * * * //

dimensions      [0 -1 0 1 0 0 0];

internalField   nonuniform List<scalar> 
100
(
-1.58527e+21
-7.20576e+20
4.32346e+20
1.29704e+21
2.8823e+20
-4.32346e+20
-2.8823e+20
1.44115e+20
-5.76461e+20
-1.44115e+20
-3.89111e+21
-1.29704e+21
2.59407e+21
2.59407e+21
4.32346e+20
4.32346e+20
4.32346e+20
7.20576e+20
1.44115e+21
8.64691e+20
-5.76461e+20
5.76461e+20
1.58527e+21
1.15292e+21
7.20576e+20
2.59407e+21
1.29704e+21
2.8823e+20
1.8735e+21
1.8735e+21
2.59407e+21
1.44115e+21
-7.20576e+20
-1.29704e+21
-5.76461e+20
4.32346e+20
4.32346e+20
1.44115e+20
8.64691e+20
-1.44115e+20
2.8823e+20
-4.32346e+20
-1.58527e+21
-1.72938e+21
-1.58527e+21
-7.20576e+20
-1.00881e+21
5.76461e+20
7.20576e+20
-1.8735e+21
4.32346e+20
5.76461e+20
7.20576e+20
8.64691e+20
2.16173e+21
2.59407e+21
1.58527e+21
1.29704e+21
-4.32346e+20
-1.15292e+21
2.59407e+21
2.73819e+21
3.45876e+21
2.16173e+21
3.17053e+21
2.73819e+21
3.02642e+21
1.58527e+21
4.32346e+20
-1.15292e+21
2.44996e+21
3.89111e+21
4.03523e+21
1.44115e+21
1.58527e+21
2.16173e+21
1.8735e+21
1.29704e+21
-2.8823e+20
-2.30584e+21
2.16173e+21
2.44996e+21
1.72938e+21
1.72938e+21
8.64691e+20
0
4.32346e+20
-1.00881e+21
-4.32346e+21
-1.8735e+21
1.44115e+21
1.44115e+20
-4.32346e+20
5.76461e+20
-4.32346e+20
-1.29704e+21
-5.76461e+20
-1.58527e+21
-2.8823e+21
-4.32346e+20
)
;

boundaryField
{
    left
    {
        type            calculated;
        value           nonuniform List<scalar> 10(-1.58527e+21 -3.89111e+21 -5.76461e+20 2.59407e+21 2.8823e+20 4.32346e+20 2.59407e+21 2.44996e+21 2.16173e+21 1.44115e+21);
    }
    right
    {
        type            calculated;
        value           nonuniform List<scalar> 10(-1.44115e+20 8.64691e+20 1.8735e+21 -1.44115e+20 -1.8735e+21 -1.15292e+21 -1.15292e+21 -2.30584e+21 -1.8735e+21 -4.32346e+20);
    }
    top
    {
        type            calculated;
        value           uniform 0;
    }
    bottom
    {
        type            calculated;
        value           uniform 0;
    }
    defaultFaces
    {
        type            empty;
    }
}


// ************************************************************************* //
