/*--------------------------------*- C++ -*----------------------------------*\
| =========                 |                                                 |
| \\      /  F ield         | OpenFOAM: The Open Source CFD Toolbox           |
|  \\    /   O peration     | Version:  2406                                  |
|   \\  /    A nd           | Website:  www.openfoam.com                      |
|    \\/     M anipulation  |                                                 |
\*---------------------------------------------------------------------------*/
FoamFile
{
    version     2.0;
    format      ascii;
    arch        "LSB;label=32;scalar=64";
    class       volScalarField;
    location    "0.4";
    object      gradTy;
}
// * * * * * * * * * * * * * * * * * * * * * * * * * * * * * * * * * * * * * //

dimensions      [0 -1 0 1 0 0 0];

internalField   nonuniform List<scalar> 
100
(
-7.6233e-18
-3.38813e-18
3.38813e-18
6.77626e-18
1.69407e-18
-3.38813e-18
-1.69407e-18
-1.69407e-18
-3.38813e-18
-1.69407e-18
-1.60936e-17
-2.5411e-18
1.18585e-17
9.31736e-18
-1.69407e-18
-8.47033e-19
1.69407e-18
0
3.38813e-18
8.47033e-19
-2.5411e-18
3.38813e-18
8.47033e-18
2.5411e-18
1.69407e-18
8.47033e-18
4.23516e-18
-2.5411e-18
5.92923e-18
4.23516e-18
1.01644e-17
4.23516e-18
-2.5411e-18
-6.77626e-18
-5.0822e-18
-1.69407e-18
-7.6233e-18
-6.77626e-18
0
-1.69407e-18
-5.0822e-18
-4.23516e-18
-1.43996e-17
-1.01644e-17
-1.35525e-17
-6.77626e-18
-8.47033e-18
8.47033e-19
2.5411e-18
-6.77626e-18
-4.23516e-18
-3.38813e-18
-6.77626e-18
-9.31736e-18
3.38813e-18
6.77626e-18
3.38813e-18
8.47033e-19
0
-8.47033e-19
7.6233e-18
7.6233e-18
1.18585e-17
2.5411e-18
5.92923e-18
5.92923e-18
6.77626e-18
6.77626e-18
5.0822e-18
8.47033e-19
5.92923e-18
1.01644e-17
1.43996e-17
4.23516e-18
0
7.6233e-18
9.31736e-18
1.10114e-17
8.47033e-19
-5.0822e-18
8.47033e-19
0
-2.5411e-18
3.38813e-18
1.69407e-18
-6.77626e-18
5.92923e-18
-8.47033e-19
-1.43996e-17
-3.38813e-18
8.47033e-19
-4.23516e-18
-5.92923e-18
-8.47033e-19
-2.5411e-18
-8.47033e-18
-3.38813e-18
-5.0822e-18
-9.31736e-18
8.47033e-19
)
;

boundaryField
{
    left
    {
        type            calculated;
        value           nonuniform List<scalar> 10(-7.6233e-18 -1.60936e-17 -2.5411e-18 1.01644e-17 -5.0822e-18 -4.23516e-18 7.6233e-18 5.92923e-18 8.47033e-19 8.47033e-19);
    }
    right
    {
        type            calculated;
        value           nonuniform List<scalar> 10(-1.69407e-18 8.47033e-19 4.23516e-18 -1.69407e-18 -6.77626e-18 -8.47033e-19 8.47033e-19 -5.0822e-18 -3.38813e-18 8.47033e-19);
    }
    top
    {
        type            calculated;
        value           uniform 0;
    }
    bottom
    {
        type            calculated;
        value           uniform 0;
    }
    defaultFaces
    {
        type            empty;
    }
}


// ************************************************************************* //
