/*--------------------------------*- C++ -*----------------------------------*\
| =========                 |                                                 |
| \\      /  F ield         | OpenFOAM: The Open Source CFD Toolbox           |
|  \\    /   O peration     | Version:  2406                                  |
|   \\  /    A nd           | Website:  www.openfoam.com                      |
|    \\/     M anipulation  |                                                 |
\*---------------------------------------------------------------------------*/
FoamFile
{
    version     2.0;
    format      ascii;
    arch        "LSB;label=32;scalar=64";
    class       volScalarField;
    location    "2.3";
    object      gradTy;
}
// * * * * * * * * * * * * * * * * * * * * * * * * * * * * * * * * * * * * * //

dimensions      [0 -1 0 1 0 0 0];

internalField   nonuniform List<scalar> 
100
(
-2.04636e-09
-9.09495e-10
4.54747e-10
2.04636e-09
6.82121e-10
0
0
-2.27374e-10
0
-2.27374e-10
-5.00222e-09
-1.13687e-09
3.86535e-09
4.09273e-09
9.09495e-10
1.13687e-09
1.36424e-09
2.27374e-10
2.50111e-09
1.13687e-09
-9.09495e-10
4.54747e-10
2.95586e-09
1.59162e-09
1.59162e-09
2.95586e-09
1.13687e-09
0
2.04636e-09
1.13687e-09
3.18323e-09
1.81899e-09
-1.59162e-09
-2.50111e-09
-1.59162e-09
2.27374e-10
-1.81899e-09
-1.13687e-09
0
-1.36424e-09
-1.13687e-09
-1.36424e-09
-3.41061e-09
-3.63798e-09
-3.86535e-09
-1.13687e-09
-1.59162e-09
2.27374e-10
4.54747e-10
-2.27374e-09
-1.13687e-09
-4.54747e-10
-1.13687e-09
-6.82121e-10
1.81899e-09
2.04636e-09
2.95586e-09
2.27374e-09
0
-6.82121e-10
2.27374e-09
3.63798e-09
4.3201e-09
2.95586e-09
4.09273e-09
3.18323e-09
3.63798e-09
2.72848e-09
9.09495e-10
-4.54747e-10
4.09273e-09
4.3201e-09
5.91172e-09
2.27374e-09
2.72848e-09
2.50111e-09
2.27374e-09
1.81899e-09
-9.09495e-10
-2.95586e-09
3.18323e-09
1.36424e-09
1.13687e-09
1.81899e-09
4.54747e-10
-4.54747e-10
1.36424e-09
-1.59162e-09
-5.45697e-09
-2.95586e-09
1.13687e-09
0
-9.09495e-10
4.54747e-10
-4.54747e-10
-1.13687e-09
-6.82121e-10
-1.59162e-09
-3.63798e-09
-1.13687e-09
)
;

boundaryField
{
    left
    {
        type            calculated;
        value           nonuniform List<scalar> 10(-2.04636e-09 -5.00222e-09 -9.09495e-10 3.18323e-09 -1.13687e-09 -1.13687e-09 2.27374e-09 4.09273e-09 3.18323e-09 1.13687e-09);
    }
    right
    {
        type            calculated;
        value           nonuniform List<scalar> 10(-2.27374e-10 1.13687e-09 1.13687e-09 -1.36424e-09 -2.27374e-09 -6.82121e-10 -4.54747e-10 -2.95586e-09 -2.95586e-09 -1.13687e-09);
    }
    top
    {
        type            calculated;
        value           uniform 0;
    }
    bottom
    {
        type            calculated;
        value           uniform 0;
    }
    defaultFaces
    {
        type            empty;
    }
}


// ************************************************************************* //
