/*--------------------------------*- C++ -*----------------------------------*\
| =========                 |                                                 |
| \\      /  F ield         | OpenFOAM: The Open Source CFD Toolbox           |
|  \\    /   O peration     | Version:  2406                                  |
|   \\  /    A nd           | Website:  www.openfoam.com                      |
|    \\/     M anipulation  |                                                 |
\*---------------------------------------------------------------------------*/
FoamFile
{
    version     2.0;
    format      ascii;
    arch        "LSB;label=32;scalar=64";
    class       volScalarField;
    location    "5.4";
    object      gradTx;
}
// * * * * * * * * * * * * * * * * * * * * * * * * * * * * * * * * * * * * * //

dimensions      [0 -1 0 1 0 0 0];

internalField   nonuniform List<scalar> 
100
(
-160000
-288000
48000
32000
-320000
-208000
32000
48000
96000
112000
-32000
-64000
144000
48000
-448000
-288000
80000
64000
64000
80000
128000
240000
256000
-144000
-480000
-208000
80000
112000
80000
64000
64000
128000
112000
-96000
-272000
-224000
-96000
144000
208000
80000
-32000
-80000
64000
-96000
-272000
-160000
-16000
192000
32000
-128000
32000
-80000
-48000
-48000
-144000
-128000
-16000
224000
-32000
-112000
32000
-32000
-48000
0
-80000
-128000
-96000
-80000
-80000
-112000
48000
0
-144000
-112000
-80000
-176000
-160000
-64000
-304000
-272000
160000
96000
-176000
-256000
-128000
-128000
-144000
-288000
-448000
-256000
64000
-64000
-144000
-176000
-288000
-224000
-176000
-384000
-352000
-64000
)
;

boundaryField
{
    left
    {
        type            calculated;
        value           uniform 0;
    }
    right
    {
        type            calculated;
        value           uniform 0;
    }
    top
    {
        type            calculated;
        value           nonuniform List<scalar> 10(64000 -64000 -144000 -176000 -288000 -224000 -176000 -384000 -352000 -64000);
    }
    bottom
    {
        type            calculated;
        value           nonuniform List<scalar> 10(-160000 -288000 48000 32000 -320000 -208000 32000 48000 96000 112000);
    }
    defaultFaces
    {
        type            empty;
    }
}


// ************************************************************************* //
