/*--------------------------------*- C++ -*----------------------------------*\
| =========                 |                                                 |
| \\      /  F ield         | OpenFOAM: The Open Source CFD Toolbox           |
|  \\    /   O peration     | Version:  2406                                  |
|   \\  /    A nd           | Website:  www.openfoam.com                      |
|    \\/     M anipulation  |                                                 |
\*---------------------------------------------------------------------------*/
FoamFile
{
    version     2.0;
    format      ascii;
    arch        "LSB;label=32;scalar=64";
    class       volScalarField;
    location    "8.9";
    object      gradTy;
}
// * * * * * * * * * * * * * * * * * * * * * * * * * * * * * * * * * * * * * //

dimensions      [0 -1 0 1 0 0 0];

internalField   nonuniform List<scalar> 
100
(
-5.76461e+20
-2.8823e+20
3.60288e+20
6.48518e+20
1.44115e+20
-7.20576e+19
0
7.20576e+19
-7.20576e+19
-7.20576e+19
-1.22498e+21
-5.04403e+20
1.22498e+21
1.08086e+21
2.16173e+20
2.8823e+20
3.60288e+20
4.32346e+20
7.20576e+20
2.16173e+20
-7.20576e+19
2.16173e+20
6.48518e+20
5.04403e+20
4.32346e+20
7.20576e+20
5.04403e+20
7.20576e+19
8.64691e+20
5.04403e+20
9.36749e+20
4.32346e+20
-5.76461e+20
-6.48518e+20
-2.8823e+20
2.16173e+20
-7.20576e+19
-2.16173e+20
2.8823e+20
-2.8823e+20
-2.16173e+20
-1.44115e+20
-6.48518e+20
-7.20576e+20
-6.48518e+20
-2.16173e+20
-4.32346e+20
1.44115e+20
-1.44115e+20
-4.32346e+20
1.44115e+20
1.44115e+20
3.60288e+20
1.44115e+20
7.20576e+20
8.64691e+20
5.76461e+20
1.44115e+20
-1.44115e+20
-2.16173e+20
8.64691e+20
1.29704e+21
1.29704e+21
7.20576e+20
1.08086e+21
1.00881e+21
1.00881e+21
6.48518e+20
0
-4.32346e+20
1.22498e+21
1.51321e+21
1.51321e+21
1.00881e+21
7.92634e+20
9.36749e+20
7.20576e+20
5.76461e+20
0
-9.36749e+20
7.20576e+20
6.48518e+20
5.04403e+20
5.76461e+20
1.44115e+20
-2.16173e+20
2.8823e+20
-2.8823e+20
-1.29704e+21
-7.20576e+20
3.60288e+20
-7.20576e+19
-1.44115e+20
0
-7.20576e+19
-4.32346e+20
-1.44115e+20
-4.32346e+20
-1.00881e+21
-1.44115e+20
)
;

boundaryField
{
    left
    {
        type            calculated;
        value           nonuniform List<scalar> 10(-5.76461e+20 -1.22498e+21 -7.20576e+19 9.36749e+20 -2.16173e+20 1.44115e+20 8.64691e+20 1.22498e+21 7.20576e+20 3.60288e+20);
    }
    right
    {
        type            calculated;
        value           nonuniform List<scalar> 10(-7.20576e+19 2.16173e+20 5.04403e+20 -2.8823e+20 -4.32346e+20 -2.16173e+20 -4.32346e+20 -9.36749e+20 -7.20576e+20 -1.44115e+20);
    }
    top
    {
        type            calculated;
        value           uniform 0;
    }
    bottom
    {
        type            calculated;
        value           uniform 0;
    }
    defaultFaces
    {
        type            empty;
    }
}


// ************************************************************************* //
