/*--------------------------------*- C++ -*----------------------------------*\
| =========                 |                                                 |
| \\      /  F ield         | OpenFOAM: The Open Source CFD Toolbox           |
|  \\    /   O peration     | Version:  2406                                  |
|   \\  /    A nd           | Website:  www.openfoam.com                      |
|    \\/     M anipulation  |                                                 |
\*---------------------------------------------------------------------------*/
FoamFile
{
    version     2.0;
    format      ascii;
    arch        "LSB;label=32;scalar=64";
    class       volScalarField;
    location    "0.7";
    object      gradTy;
}
// * * * * * * * * * * * * * * * * * * * * * * * * * * * * * * * * * * * * * //

dimensions      [0 -1 0 1 0 0 0];

internalField   nonuniform List<scalar> 
100
(
-2.1684e-16
-5.42101e-17
8.13152e-17
1.0842e-16
2.71051e-17
-2.71051e-17
2.71051e-17
0
-2.71051e-17
-5.42101e-17
-4.87891e-16
-1.35525e-16
2.43945e-16
2.71051e-16
2.71051e-17
2.71051e-17
5.42101e-17
8.13152e-17
1.35525e-16
-5.42101e-17
-5.42101e-17
5.42101e-17
1.35525e-16
8.13152e-17
2.71051e-17
1.35525e-16
2.71051e-17
-2.71051e-17
1.35525e-16
1.0842e-16
2.43945e-16
1.35525e-16
-1.0842e-16
-2.43945e-16
-1.35525e-16
2.71051e-17
-1.0842e-16
-1.0842e-16
0
-1.0842e-16
-1.35525e-16
-1.0842e-16
-2.71051e-16
-2.98156e-16
-2.71051e-16
-5.42101e-17
-1.35525e-16
0
5.42101e-17
-1.89735e-16
-1.35525e-16
-1.0842e-16
-8.13152e-17
-1.0842e-16
1.0842e-16
1.35525e-16
8.13152e-17
2.71051e-17
-2.71051e-17
0
2.43945e-16
2.1684e-16
2.71051e-16
8.13152e-17
2.1684e-16
2.1684e-16
2.71051e-16
1.35525e-16
2.71051e-17
0
2.71051e-16
3.25261e-16
3.52366e-16
1.35525e-16
1.35525e-16
2.1684e-16
1.89735e-16
1.6263e-16
0
-2.43945e-16
1.89735e-16
1.35525e-16
2.71051e-17
1.35525e-16
0
-1.0842e-16
0
-5.42101e-17
-3.52366e-16
-1.35525e-16
1.0842e-16
-2.71051e-17
-8.13152e-17
5.42101e-17
-8.13152e-17
-1.6263e-16
-5.42101e-17
-5.42101e-17
-1.89735e-16
5.42101e-17
)
;

boundaryField
{
    left
    {
        type            calculated;
        value           nonuniform List<scalar> 10(-2.1684e-16 -4.87891e-16 -5.42101e-17 2.43945e-16 -1.35525e-16 -1.35525e-16 2.43945e-16 2.71051e-16 1.89735e-16 1.0842e-16);
    }
    right
    {
        type            calculated;
        value           nonuniform List<scalar> 10(-5.42101e-17 -5.42101e-17 1.0842e-16 -1.0842e-16 -1.89735e-16 0 0 -2.43945e-16 -1.35525e-16 5.42101e-17);
    }
    top
    {
        type            calculated;
        value           uniform 0;
    }
    bottom
    {
        type            calculated;
        value           uniform 0;
    }
    defaultFaces
    {
        type            empty;
    }
}


// ************************************************************************* //
