/*--------------------------------*- C++ -*----------------------------------*\
| =========                 |                                                 |
| \\      /  F ield         | OpenFOAM: The Open Source CFD Toolbox           |
|  \\    /   O peration     | Version:  2406                                  |
|   \\  /    A nd           | Website:  www.openfoam.com                      |
|    \\/     M anipulation  |                                                 |
\*---------------------------------------------------------------------------*/
FoamFile
{
    version     2.0;
    format      ascii;
    arch        "LSB;label=32;scalar=64";
    class       volScalarField;
    location    "1.6";
    object      gradTx;
}
// * * * * * * * * * * * * * * * * * * * * * * * * * * * * * * * * * * * * * //

dimensions      [0 -1 0 1 0 0 0];

internalField   nonuniform List<scalar> 
100
(
-1.77636e-12
-3.77476e-12
-1.33227e-12
4.44089e-13
-3.10862e-12
-2.44249e-12
8.88178e-13
6.66134e-13
1.9984e-12
1.55431e-12
-6.66134e-13
-1.11022e-12
1.11022e-12
0
-5.32907e-12
-2.66454e-12
1.77636e-12
2.22045e-13
1.77636e-12
1.77636e-12
6.66134e-13
2.22045e-12
3.10862e-12
-1.55431e-12
-5.77316e-12
-1.9984e-12
1.11022e-12
8.88178e-13
1.11022e-12
2.22045e-13
0
6.66134e-13
1.11022e-12
-1.11022e-12
-3.10862e-12
-2.66454e-12
-1.11022e-12
1.55431e-12
1.77636e-12
8.88178e-13
-2.22045e-13
-6.66134e-13
8.88178e-13
-1.9984e-12
-3.33067e-12
-1.77636e-12
6.66134e-13
2.22045e-12
2.22045e-13
-1.33227e-12
2.22045e-13
-8.88178e-13
2.22045e-13
-8.88178e-13
-1.55431e-12
-8.88178e-13
-2.22045e-13
2.44249e-12
2.22045e-13
-1.11022e-12
8.88178e-13
2.22045e-13
6.66134e-13
2.22045e-13
-1.11022e-12
-1.11022e-12
-1.11022e-12
-4.44089e-13
-1.33227e-12
-1.77636e-12
8.88178e-13
2.22045e-13
-2.22045e-13
-4.44089e-13
-6.66134e-13
-1.33227e-12
-8.88178e-13
-4.44089e-13
-3.33067e-12
-2.88658e-12
2.22045e-12
1.77636e-12
-8.88178e-13
-1.55431e-12
-1.11022e-12
-1.55431e-12
-1.11022e-12
-3.33067e-12
-5.32907e-12
-2.44249e-12
2.22045e-13
-8.88178e-13
-2.22045e-13
-1.11022e-12
-2.66454e-12
-6.66134e-13
-1.55431e-12
-5.10703e-12
-4.21885e-12
-1.11022e-12
)
;

boundaryField
{
    left
    {
        type            calculated;
        value           uniform 0;
    }
    right
    {
        type            calculated;
        value           uniform 0;
    }
    top
    {
        type            calculated;
        value           nonuniform List<scalar> 10(2.22045e-13 -8.88178e-13 -2.22045e-13 -1.11022e-12 -2.66454e-12 -6.66134e-13 -1.55431e-12 -5.10703e-12 -4.21885e-12 -1.11022e-12);
    }
    bottom
    {
        type            calculated;
        value           nonuniform List<scalar> 10(-1.77636e-12 -3.77476e-12 -1.33227e-12 4.44089e-13 -3.10862e-12 -2.44249e-12 8.88178e-13 6.66134e-13 1.9984e-12 1.55431e-12);
    }
    defaultFaces
    {
        type            empty;
    }
}


// ************************************************************************* //
