/*--------------------------------*- C++ -*----------------------------------*\
| =========                 |                                                 |
| \\      /  F ield         | OpenFOAM: The Open Source CFD Toolbox           |
|  \\    /   O peration     | Version:  2406                                  |
|   \\  /    A nd           | Website:  www.openfoam.com                      |
|    \\/     M anipulation  |                                                 |
\*---------------------------------------------------------------------------*/
FoamFile
{
    version     2.0;
    format      ascii;
    arch        "LSB;label=32;scalar=64";
    class       volVectorField;
    location    "7.85";
    object      flux;
}
// * * * * * * * * * * * * * * * * * * * * * * * * * * * * * * * * * * * * * //

dimensions      [0 1 -1 1 0 0 0];

internalField   nonuniform List<vector> 
100
(
(-5.27766e+14 -5.27766e+14 0)
(-9.6757e+14 0 0)
(-4.39805e+13 2.19902e+14 0)
(1.75922e+14 4.83785e+14 0)
(-1.05553e+15 8.79609e+13 0)
(-8.79609e+14 -8.79609e+13 0)
(1.75922e+14 -8.79609e+13 0)
(-4.39805e+13 0 0)
(1.31941e+14 4.39805e+13 0)
(3.07863e+14 8.79609e+13 0)
(-8.79609e+13 -8.35629e+14 0)
(-1.31941e+14 -1.75922e+14 0)
(4.83785e+14 8.79609e+14 0)
(0 8.35629e+14 0)
(-1.62728e+15 1.75922e+14 0)
(-1.01155e+15 1.31941e+14 0)
(1.75922e+14 3.51844e+14 0)
(4.39805e+13 1.75922e+14 0)
(1.75922e+14 4.39805e+14 0)
(3.95824e+14 1.31941e+14 0)
(2.19902e+14 -4.39805e+13 0)
(7.03687e+14 2.19902e+14 0)
(8.79609e+14 4.39805e+14 0)
(-4.39805e+14 2.19902e+14 0)
(-1.8032e+15 2.19902e+14 0)
(-7.47668e+14 6.59707e+14 0)
(3.07863e+14 3.07863e+14 0)
(8.79609e+13 4.39805e+13 0)
(8.79609e+13 7.03687e+14 0)
(4.39805e+13 3.95824e+14 0)
(2.19902e+14 6.15727e+14 0)
(3.95824e+14 3.51844e+14 0)
(4.39805e+14 -3.07863e+14 0)
(-2.63883e+14 -3.95824e+14 0)
(-1.09951e+15 -2.19902e+14 0)
(-8.79609e+14 3.51844e+14 0)
(-3.95824e+14 -4.39805e+13 0)
(2.63883e+14 -8.79609e+13 0)
(5.27766e+14 3.07863e+14 0)
(8.79609e+13 -1.31941e+14 0)
(-4.39805e+13 8.79609e+13 0)
(-1.75922e+14 -8.79609e+13 0)
(2.19902e+14 -6.59707e+14 0)
(-3.95824e+14 -7.03687e+14 0)
(-1.09951e+15 -5.71746e+14 0)
(-6.15727e+14 -4.39805e+13 0)
(-1.75922e+14 -1.75922e+14 0)
(5.71746e+14 2.19902e+14 0)
(0 1.75922e+14 0)
(-4.83785e+14 -3.95824e+14 0)
(4.39805e+13 0 0)
(-4.39805e+14 1.31941e+14 0)
(-2.63883e+14 1.31941e+14 0)
(-1.31941e+14 -1.31941e+14 0)
(-3.95824e+14 5.27766e+14 0)
(-4.83785e+14 6.59707e+14 0)
(-2.19902e+14 7.03687e+14 0)
(6.15727e+14 5.27766e+14 0)
(-4.39805e+13 -4.39805e+13 0)
(-3.95824e+14 -1.31941e+14 0)
(4.39805e+13 7.91648e+14 0)
(-8.79609e+13 8.79609e+14 0)
(-4.39805e+13 1.05553e+15 0)
(4.39805e+13 6.15727e+14 0)
(-3.51844e+14 8.35629e+14 0)
(-3.95824e+14 7.47668e+14 0)
(-2.63883e+14 9.2359e+14 0)
(-2.19902e+14 5.27766e+14 0)
(-6.15727e+14 1.75922e+14 0)
(-5.71746e+14 -5.27766e+14 0)
(8.79609e+13 9.2359e+14 0)
(-1.75922e+14 1.14349e+15 0)
(-4.39805e+14 1.23145e+15 0)
(-3.95824e+14 7.91648e+14 0)
(-2.63883e+14 5.71746e+14 0)
(-3.95824e+14 6.59707e+14 0)
(-3.95824e+14 6.15727e+14 0)
(-1.31941e+14 3.51844e+14 0)
(-1.18747e+15 -1.75922e+14 0)
(-1.05553e+15 -6.15727e+14 0)
(3.95824e+14 5.71746e+14 0)
(1.75922e+14 5.71746e+14 0)
(-4.83785e+14 6.15727e+14 0)
(-6.15727e+14 7.03687e+14 0)
(-4.39805e+14 5.27766e+14 0)
(-3.95824e+14 1.31941e+14 0)
(-5.71746e+14 3.95824e+14 0)
(-9.2359e+14 -1.31941e+14 0)
(-1.53932e+15 -9.6757e+14 0)
(-1.05553e+15 -3.07863e+14 0)
(8.79609e+13 3.07863e+14 0)
(-1.31941e+14 0 0)
(-2.19902e+14 4.39805e+13 0)
(-5.71746e+14 2.19902e+14 0)
(-7.47668e+14 8.79609e+13 0)
(-4.83785e+14 -8.79609e+13 0)
(-6.59707e+14 0 0)
(-1.5833e+15 -2.19902e+14 0)
(-1.36339e+15 -6.15727e+14 0)
(-3.95824e+14 4.39805e+13 0)
)
;

boundaryField
{
    left
    {
        type            calculated;
        value           nonuniform List<vector> 10((0 -5.27766e+14 0) (0 -8.35629e+14 0) (0 -4.39805e+13 0) (0 6.15727e+14 0) (0 8.79609e+13 0) (0 0 0) (0 7.91648e+14 0) (0 9.2359e+14 0) (0 5.71746e+14 0) (0 3.07863e+14 0));
    }
    right
    {
        type            calculated;
        value           nonuniform List<vector> 10((0 8.79609e+13 0) (0 1.31941e+14 0) (0 3.95824e+14 0) (0 -1.31941e+14 0) (0 -3.95824e+14 0) (0 -1.31941e+14 0) (0 -5.27766e+14 0) (0 -6.15727e+14 0) (0 -3.07863e+14 0) (0 4.39805e+13 0));
    }
    top
    {
        type            calculated;
        value           nonuniform List<vector> 10((8.79609e+13 0 0) (-1.31941e+14 0 0) (-2.19902e+14 0 0) (-5.71746e+14 0 0) (-7.47668e+14 0 0) (-4.83785e+14 0 0) (-6.59707e+14 0 0) (-1.5833e+15 0 0) (-1.36339e+15 0 0) (-3.95824e+14 0 0));
    }
    bottom
    {
        type            calculated;
        value           nonuniform List<vector> 10((-5.27766e+14 0 0) (-9.6757e+14 0 0) (-4.39805e+13 0 0) (1.75922e+14 0 0) (-1.05553e+15 0 0) (-8.79609e+14 0 0) (1.75922e+14 0 0) (-4.39805e+13 0 0) (1.31941e+14 0 0) (3.07863e+14 0 0));
    }
    defaultFaces
    {
        type            empty;
    }
}


// ************************************************************************* //
