/*--------------------------------*- C++ -*----------------------------------*\
| =========                 |                                                 |
| \\      /  F ield         | OpenFOAM: The Open Source CFD Toolbox           |
|  \\    /   O peration     | Version:  2406                                  |
|   \\  /    A nd           | Website:  www.openfoam.com                      |
|    \\/     M anipulation  |                                                 |
\*---------------------------------------------------------------------------*/
FoamFile
{
    version     2.0;
    format      ascii;
    arch        "LSB;label=32;scalar=64";
    class       volScalarField;
    location    "7.85";
    object      gradTy;
}
// * * * * * * * * * * * * * * * * * * * * * * * * * * * * * * * * * * * * * //

dimensions      [0 -1 0 1 0 0 0];

internalField   nonuniform List<scalar> 
100
(
-1.31941e+16
0
5.49756e+15
1.20946e+16
2.19902e+15
-2.19902e+15
-2.19902e+15
0
1.09951e+15
2.19902e+15
-2.08907e+16
-4.39805e+15
2.19902e+16
2.08907e+16
4.39805e+15
3.29853e+15
8.79609e+15
4.39805e+15
1.09951e+16
3.29853e+15
-1.09951e+15
5.49756e+15
1.09951e+16
5.49756e+15
5.49756e+15
1.64927e+16
7.69658e+15
1.09951e+15
1.75922e+16
9.8956e+15
1.53932e+16
8.79609e+15
-7.69658e+15
-9.8956e+15
-5.49756e+15
8.79609e+15
-1.09951e+15
-2.19902e+15
7.69658e+15
-3.29853e+15
2.19902e+15
-2.19902e+15
-1.64927e+16
-1.75922e+16
-1.42937e+16
-1.09951e+15
-4.39805e+15
5.49756e+15
4.39805e+15
-9.8956e+15
0
3.29853e+15
3.29853e+15
-3.29853e+15
1.31941e+16
1.64927e+16
1.75922e+16
1.31941e+16
-1.09951e+15
-3.29853e+15
1.97912e+16
2.19902e+16
2.63883e+16
1.53932e+16
2.08907e+16
1.86917e+16
2.30897e+16
1.31941e+16
4.39805e+15
-1.31941e+16
2.30897e+16
2.85873e+16
3.07863e+16
1.97912e+16
1.42937e+16
1.64927e+16
1.53932e+16
8.79609e+15
-4.39805e+15
-1.53932e+16
1.42937e+16
1.42937e+16
1.53932e+16
1.75922e+16
1.31941e+16
3.29853e+15
9.8956e+15
-3.29853e+15
-2.41893e+16
-7.69658e+15
7.69658e+15
0
1.09951e+15
5.49756e+15
2.19902e+15
-2.19902e+15
0
-5.49756e+15
-1.53932e+16
1.09951e+15
)
;

boundaryField
{
    left
    {
        type            calculated;
        value           nonuniform List<scalar> 10(-1.31941e+16 -2.08907e+16 -1.09951e+15 1.53932e+16 2.19902e+15 0 1.97912e+16 2.30897e+16 1.42937e+16 7.69658e+15);
    }
    right
    {
        type            calculated;
        value           nonuniform List<scalar> 10(2.19902e+15 3.29853e+15 9.8956e+15 -3.29853e+15 -9.8956e+15 -3.29853e+15 -1.31941e+16 -1.53932e+16 -7.69658e+15 1.09951e+15);
    }
    top
    {
        type            calculated;
        value           uniform 0;
    }
    bottom
    {
        type            calculated;
        value           uniform 0;
    }
    defaultFaces
    {
        type            empty;
    }
}


// ************************************************************************* //
