/*--------------------------------*- C++ -*----------------------------------*\
| =========                 |                                                 |
| \\      /  F ield         | OpenFOAM: The Open Source CFD Toolbox           |
|  \\    /   O peration     | Version:  2406                                  |
|   \\  /    A nd           | Website:  www.openfoam.com                      |
|    \\/     M anipulation  |                                                 |
\*---------------------------------------------------------------------------*/
FoamFile
{
    version     2.0;
    format      ascii;
    arch        "LSB;label=32;scalar=64";
    class       volScalarField;
    location    "4.45";
    object      gradTy;
}
// * * * * * * * * * * * * * * * * * * * * * * * * * * * * * * * * * * * * * //

dimensions      [0 -1 0 1 0 0 0];

internalField   nonuniform List<scalar> 
100
(
-6.83594
-1.95312
1.95313
8.78906
2.92969
-2.92969
1.95312
0
0.976563
2.92969
-19.5312
-1.95312
15.625
12.6953
1.95312
4.88281
5.85938
0.976562
6.83594
3.90625
-1.95313
0.976563
9.76563
0.976562
6.83594
13.6719
4.88281
-0.976562
8.78906
5.85938
10.7422
4.88281
-4.88281
-8.78906
-7.8125
-0.976562
-4.88281
-3.90625
1.95312
-4.88281
-0.976562
-3.90625
-11.7188
-12.6953
-13.6719
-7.8125
-4.88281
0.976562
-0.976563
-9.76563
0.976563
3.90625
1.95313
-0.976562
10.7422
12.6953
10.7422
6.83594
-4.88281
-6.83594
16.6016
18.5547
22.4609
12.6953
16.6016
15.625
15.625
9.76562
0
-6.83594
13.6719
20.5078
23.4375
14.6484
10.7422
9.76562
8.78906
5.85937
-0.976562
-13.6719
12.6953
8.78906
5.85938
13.6719
5.85938
-2.92969
0.976563
-5.85937
-20.5078
-11.7188
8.78906
0.976562
-0.976563
3.90625
-1.95313
-6.83594
-4.88281
-7.8125
-13.6719
-0.976562
)
;

boundaryField
{
    left
    {
        type            calculated;
        value           nonuniform List<scalar> 10(-6.83594 -19.5312 -1.95313 10.7422 -0.976562 0.976563 16.6016 13.6719 12.6953 8.78906);
    }
    right
    {
        type            calculated;
        value           nonuniform List<scalar> 10(2.92969 3.90625 5.85938 -4.88281 -9.76563 -6.83594 -6.83594 -13.6719 -11.7188 -0.976562);
    }
    top
    {
        type            calculated;
        value           uniform 0;
    }
    bottom
    {
        type            calculated;
        value           uniform 0;
    }
    defaultFaces
    {
        type            empty;
    }
}


// ************************************************************************* //
