/*--------------------------------*- C++ -*----------------------------------*\
| =========                 |                                                 |
| \\      /  F ield         | OpenFOAM: The Open Source CFD Toolbox           |
|  \\    /   O peration     | Version:  2406                                  |
|   \\  /    A nd           | Website:  www.openfoam.com                      |
|    \\/     M anipulation  |                                                 |
\*---------------------------------------------------------------------------*/
FoamFile
{
    version     2.0;
    format      ascii;
    arch        "LSB;label=32;scalar=64";
    class       volScalarField;
    location    "4.45";
    object      gradTx;
}
// * * * * * * * * * * * * * * * * * * * * * * * * * * * * * * * * * * * * * //

dimensions      [0 -1 0 1 0 0 0];

internalField   nonuniform List<scalar> 
100
(
-8.78906
-17.5781
-1.95313
1.95312
-16.6016
-12.6953
6.83594
3.90625
1.95313
4.88281
-1.95312
-6.83594
8.78906
0.976562
-28.3203
-14.6484
10.7422
1.95312
3.90625
6.83594
7.8125
13.6719
11.7188
-6.83594
-25.3906
-9.76563
3.90625
3.90625
2.92969
3.90625
3.90625
5.85938
5.85937
-2.92969
-13.6719
-15.625
-7.8125
8.78906
11.7188
3.90625
0
-2.92969
1.95313
-10.7422
-18.5547
-6.83594
1.95313
11.7187
1.95313
-4.88281
1.95313
-3.90625
-2.92969
-6.83594
-8.78906
-5.85938
0.976563
12.6953
-0.976563
-6.83594
1.95312
-2.92969
-3.90625
0
-4.88281
-5.85938
-3.90625
-5.85937
-8.78906
-6.83594
4.88281
2.92969
-9.76562
-12.6953
-6.83594
-6.83594
-2.92969
-3.90625
-18.5547
-13.6719
8.78906
4.88281
-6.83594
-13.6719
-10.7422
-8.78906
-7.8125
-14.6484
-27.3438
-19.5313
0.976562
-3.90625
-4.88281
-13.6719
-21.4844
-12.6953
-6.83594
-25.3906
-22.4609
-4.88281
)
;

boundaryField
{
    left
    {
        type            calculated;
        value           uniform 0;
    }
    right
    {
        type            calculated;
        value           uniform 0;
    }
    top
    {
        type            calculated;
        value           nonuniform List<scalar> 10(0.976562 -3.90625 -4.88281 -13.6719 -21.4844 -12.6953 -6.83594 -25.3906 -22.4609 -4.88281);
    }
    bottom
    {
        type            calculated;
        value           nonuniform List<scalar> 10(-8.78906 -17.5781 -1.95313 1.95312 -16.6016 -12.6953 6.83594 3.90625 1.95313 4.88281);
    }
    defaultFaces
    {
        type            empty;
    }
}


// ************************************************************************* //
