/*--------------------------------*- C++ -*----------------------------------*\
| =========                 |                                                 |
| \\      /  F ield         | OpenFOAM: The Open Source CFD Toolbox           |
|  \\    /   O peration     | Version:  2406                                  |
|   \\  /    A nd           | Website:  www.openfoam.com                      |
|    \\/     M anipulation  |                                                 |
\*---------------------------------------------------------------------------*/
FoamFile
{
    version     2.0;
    format      ascii;
    arch        "LSB;label=32;scalar=64";
    class       volScalarField;
    location    "1.65";
    object      gradTy;
}
// * * * * * * * * * * * * * * * * * * * * * * * * * * * * * * * * * * * * * //

dimensions      [0 -1 0 1 0 0 0];

internalField   nonuniform List<scalar> 
100
(
-2.66454e-12
-1.33227e-12
8.88178e-13
3.10862e-12
8.88178e-13
-8.88178e-13
1.33227e-12
0
0
0
-6.21725e-12
-2.22045e-12
4.44089e-12
4.88498e-12
8.88178e-13
1.77636e-12
3.10862e-12
1.33227e-12
2.22045e-12
4.44089e-13
-8.88178e-13
8.88178e-13
3.10862e-12
0
0
3.9968e-12
8.88178e-13
0
2.66454e-12
4.44089e-13
3.10862e-12
1.77636e-12
-2.22045e-12
-3.10862e-12
-2.22045e-12
4.44089e-13
-1.33227e-12
-8.88178e-13
0
-1.77636e-12
-2.66454e-12
-2.22045e-12
-3.9968e-12
-3.55271e-12
-3.55271e-12
-8.88178e-13
-8.88178e-13
8.88178e-13
8.88178e-13
-2.22045e-12
-1.33227e-12
-4.44089e-13
-4.44089e-13
4.44089e-13
2.66454e-12
3.9968e-12
3.10862e-12
8.88178e-13
-8.88178e-13
-8.88178e-13
3.10862e-12
3.55271e-12
5.32907e-12
2.66454e-12
4.44089e-12
3.55271e-12
3.9968e-12
3.55271e-12
4.44089e-13
-3.10862e-12
3.10862e-12
5.32907e-12
5.32907e-12
1.77636e-12
3.10862e-12
2.66454e-12
2.66454e-12
2.66454e-12
-2.22045e-12
-4.88498e-12
3.10862e-12
2.66454e-12
1.77636e-12
2.22045e-12
1.33227e-12
-8.88178e-13
8.88178e-13
-2.22045e-12
-7.10543e-12
-3.55271e-12
2.22045e-12
-4.44089e-13
-8.88178e-13
8.88178e-13
-8.88178e-13
-2.66454e-12
-8.88178e-13
-2.22045e-12
-3.10862e-12
-8.88178e-13
)
;

boundaryField
{
    left
    {
        type            calculated;
        value           nonuniform List<scalar> 10(-2.66454e-12 -6.21725e-12 -8.88178e-13 3.10862e-12 -2.66454e-12 -1.33227e-12 3.10862e-12 3.10862e-12 3.10862e-12 2.22045e-12);
    }
    right
    {
        type            calculated;
        value           nonuniform List<scalar> 10(0 4.44089e-13 4.44089e-13 -1.77636e-12 -2.22045e-12 -8.88178e-13 -3.10862e-12 -4.88498e-12 -3.55271e-12 -8.88178e-13);
    }
    top
    {
        type            calculated;
        value           uniform 0;
    }
    bottom
    {
        type            calculated;
        value           uniform 0;
    }
    defaultFaces
    {
        type            empty;
    }
}


// ************************************************************************* //
