/*--------------------------------*- C++ -*----------------------------------*\
| =========                 |                                                 |
| \\      /  F ield         | OpenFOAM: The Open Source CFD Toolbox           |
|  \\    /   O peration     | Version:  2406                                  |
|   \\  /    A nd           | Website:  www.openfoam.com                      |
|    \\/     M anipulation  |                                                 |
\*---------------------------------------------------------------------------*/
FoamFile
{
    version     2.0;
    format      ascii;
    arch        "LSB;label=32;scalar=64";
    class       volScalarField;
    location    "1.35";
    object      gradTx;
}
// * * * * * * * * * * * * * * * * * * * * * * * * * * * * * * * * * * * * * //

dimensions      [0 -1 0 1 0 0 0];

internalField   nonuniform List<scalar> 
100
(
-1.52656e-13
-2.91434e-13
-4.16334e-14
5.55112e-14
-2.498e-13
-1.80411e-13
9.71445e-14
9.71445e-14
1.66533e-13
1.249e-13
-6.93889e-14
-6.93889e-14
1.52656e-13
0
-3.88578e-13
-1.52656e-13
9.71445e-14
2.77556e-14
1.249e-13
1.38778e-13
8.32667e-14
2.35922e-13
2.498e-13
-8.32667e-14
-4.57967e-13
-2.08167e-13
1.38778e-13
1.66533e-13
8.32667e-14
2.77556e-14
4.16334e-14
6.93889e-14
1.80411e-13
-4.16334e-14
-2.91434e-13
-2.22045e-13
-5.55112e-14
1.11022e-13
1.94289e-13
8.32667e-14
-1.38778e-14
-4.16334e-14
9.71445e-14
-8.32667e-14
-2.91434e-13
-1.11022e-13
4.16334e-14
1.94289e-13
6.93889e-14
-6.93889e-14
2.77556e-14
-2.77556e-14
6.93889e-14
-4.16334e-14
-1.249e-13
-1.38778e-14
0
1.94289e-13
0
-1.249e-13
6.93889e-14
2.77556e-14
6.93889e-14
4.16334e-14
-8.32667e-14
-1.11022e-13
-4.16334e-14
8.32667e-14
-9.71445e-14
-1.38778e-13
6.93889e-14
5.55112e-14
-6.93889e-14
-6.93889e-14
-4.16334e-14
-1.38778e-13
-5.55112e-14
1.38778e-14
-2.22045e-13
-2.22045e-13
1.52656e-13
1.249e-13
-6.93889e-14
-1.11022e-13
-8.32667e-14
-1.249e-13
-1.249e-13
-1.80411e-13
-3.88578e-13
-2.63678e-13
1.38778e-14
-1.38778e-14
-2.77556e-14
-8.32667e-14
-1.94289e-13
-1.11022e-13
-1.249e-13
-3.747e-13
-2.63678e-13
-2.77556e-14
)
;

boundaryField
{
    left
    {
        type            calculated;
        value           uniform 0;
    }
    right
    {
        type            calculated;
        value           uniform 0;
    }
    top
    {
        type            calculated;
        value           nonuniform List<scalar> 10(1.38778e-14 -1.38778e-14 -2.77556e-14 -8.32667e-14 -1.94289e-13 -1.11022e-13 -1.249e-13 -3.747e-13 -2.63678e-13 -2.77556e-14);
    }
    bottom
    {
        type            calculated;
        value           nonuniform List<scalar> 10(-1.52656e-13 -2.91434e-13 -4.16334e-14 5.55112e-14 -2.498e-13 -1.80411e-13 9.71445e-14 9.71445e-14 1.66533e-13 1.249e-13);
    }
    defaultFaces
    {
        type            empty;
    }
}


// ************************************************************************* //
