/*--------------------------------*- C++ -*----------------------------------*\
| =========                 |                                                 |
| \\      /  F ield         | OpenFOAM: The Open Source CFD Toolbox           |
|  \\    /   O peration     | Version:  2406                                  |
|   \\  /    A nd           | Website:  www.openfoam.com                      |
|    \\/     M anipulation  |                                                 |
\*---------------------------------------------------------------------------*/
FoamFile
{
    version     2.0;
    format      ascii;
    arch        "LSB;label=32;scalar=64";
    class       volVectorField;
    location    "8.3";
    object      flux;
}
// * * * * * * * * * * * * * * * * * * * * * * * * * * * * * * * * * * * * * //

dimensions      [0 1 -1 1 0 0 0];

internalField   nonuniform List<vector> 
100
(
(-4.5036e+16 -5.6295e+16 0)
(-1.23849e+17 -1.68885e+16 0)
(-2.81475e+16 2.81475e+16 0)
(1.1259e+16 5.06655e+16 0)
(-7.31835e+16 1.68885e+16 0)
(-3.94065e+16 -5.6295e+15 0)
(0 1.1259e+16 0)
(5.6295e+15 1.1259e+16 0)
(2.81475e+16 -1.1259e+16 0)
(2.81475e+16 5.6295e+15 0)
(-5.6295e+15 -1.01331e+17 0)
(-3.94065e+16 -2.2518e+16 0)
(3.94065e+16 9.57015e+16 0)
(5.6295e+15 1.01331e+17 0)
(-1.35108e+17 4.5036e+16 0)
(-5.06655e+16 5.6295e+15 0)
(2.2518e+16 5.06655e+16 0)
(-1.1259e+16 4.5036e+16 0)
(2.81475e+16 3.94065e+16 0)
(3.94065e+16 1.68885e+16 0)
(1.68885e+16 1.1259e+16 0)
(7.31835e+16 2.2518e+16 0)
(9.0072e+16 6.19245e+16 0)
(-3.3777e+16 4.5036e+16 0)
(-1.63255e+17 2.81475e+16 0)
(-5.06655e+16 5.6295e+16 0)
(5.06655e+16 1.1259e+16 0)
(-1.68885e+16 0 0)
(0 3.94065e+16 0)
(1.68885e+16 3.3777e+16 0)
(1.1259e+16 6.7554e+16 0)
(2.81475e+16 4.5036e+16 0)
(5.06655e+16 -2.2518e+16 0)
(-3.3777e+16 -3.94065e+16 0)
(-1.0696e+17 -2.2518e+16 0)
(-7.31835e+16 2.81475e+16 0)
(-3.3777e+16 -2.81475e+16 0)
(1.68885e+16 -3.3777e+16 0)
(6.19245e+16 2.2518e+16 0)
(2.81475e+16 -2.2518e+16 0)
(-5.6295e+15 -5.6295e+15 0)
(-1.68885e+16 -1.1259e+16 0)
(2.2518e+16 -6.19245e+16 0)
(-4.5036e+16 -5.6295e+16 0)
(-1.0696e+17 -5.6295e+16 0)
(-5.06655e+16 1.1259e+16 0)
(-5.6295e+15 -1.68885e+16 0)
(3.3777e+16 1.68885e+16 0)
(5.6295e+15 2.2518e+16 0)
(-2.81475e+16 -6.19245e+16 0)
(1.1259e+16 0 0)
(-3.3777e+16 2.2518e+16 0)
(-5.6295e+15 0 0)
(-1.68885e+16 5.6295e+15 0)
(-3.3777e+16 5.6295e+16 0)
(-3.94065e+16 8.44425e+16 0)
(-3.3777e+16 5.06655e+16 0)
(6.19245e+16 2.2518e+16 0)
(-2.2518e+16 0 0)
(-5.6295e+16 -2.2518e+16 0)
(1.68885e+16 8.44425e+16 0)
(-1.1259e+16 1.01331e+17 0)
(0 1.40737e+17 0)
(5.6295e+15 6.7554e+16 0)
(-3.3777e+16 1.01331e+17 0)
(-4.5036e+16 7.8813e+16 0)
(-5.6295e+16 9.0072e+16 0)
(-1.68885e+16 5.06655e+16 0)
(-3.3777e+16 5.6295e+15 0)
(-5.06655e+16 -1.68885e+16 0)
(1.68885e+16 9.0072e+16 0)
(1.68885e+16 1.18219e+17 0)
(-3.3777e+16 1.63255e+17 0)
(-5.06655e+16 8.44425e+16 0)
(-2.2518e+16 7.8813e+16 0)
(-5.06655e+16 7.31835e+16 0)
(-7.8813e+16 6.19245e+16 0)
(-2.81475e+16 5.06655e+16 0)
(-7.8813e+16 -3.3777e+16 0)
(-7.8813e+16 -6.19245e+16 0)
(5.6295e+16 6.19245e+16 0)
(6.19245e+16 3.94065e+16 0)
(-3.3777e+16 3.94065e+16 0)
(-7.8813e+16 7.8813e+16 0)
(-5.06655e+16 2.81475e+16 0)
(-6.19245e+16 -3.3777e+16 0)
(-6.7554e+16 2.2518e+16 0)
(-1.1259e+17 -5.6295e+15 0)
(-1.46367e+17 -1.0696e+17 0)
(-7.8813e+16 -5.6295e+16 0)
(5.6295e+15 4.5036e+16 0)
(-5.6295e+15 0 0)
(5.6295e+15 -1.1259e+16 0)
(-6.7554e+16 3.94065e+16 0)
(-1.29478e+17 0 0)
(-6.19245e+16 -4.5036e+16 0)
(-5.6295e+16 -1.1259e+16 0)
(-1.51996e+17 -2.81475e+16 0)
(-1.40737e+17 -5.06655e+16 0)
(-3.94065e+16 -2.2518e+16 0)
)
;

boundaryField
{
    left
    {
        type            calculated;
        value           nonuniform List<vector> 10((0 -5.6295e+16 0) (0 -1.01331e+17 0) (0 1.1259e+16 0) (0 6.7554e+16 0) (0 -5.6295e+15 0) (0 0 0) (0 8.44425e+16 0) (0 9.0072e+16 0) (0 6.19245e+16 0) (0 4.5036e+16 0));
    }
    right
    {
        type            calculated;
        value           nonuniform List<vector> 10((0 5.6295e+15 0) (0 1.68885e+16 0) (0 3.3777e+16 0) (0 -2.2518e+16 0) (0 -6.19245e+16 0) (0 -2.2518e+16 0) (0 -1.68885e+16 0) (0 -6.19245e+16 0) (0 -5.6295e+16 0) (0 -2.2518e+16 0));
    }
    top
    {
        type            calculated;
        value           nonuniform List<vector> 10((5.6295e+15 0 0) (-5.6295e+15 0 0) (5.6295e+15 0 0) (-6.7554e+16 0 0) (-1.29478e+17 0 0) (-6.19245e+16 0 0) (-5.6295e+16 0 0) (-1.51996e+17 0 0) (-1.40737e+17 0 0) (-3.94065e+16 0 0));
    }
    bottom
    {
        type            calculated;
        value           nonuniform List<vector> 10((-4.5036e+16 0 0) (-1.23849e+17 0 0) (-2.81475e+16 0 0) (1.1259e+16 0 0) (-7.31835e+16 0 0) (-3.94065e+16 0 0) (0 0 0) (5.6295e+15 0 0) (2.81475e+16 0 0) (2.81475e+16 0 0));
    }
    defaultFaces
    {
        type            empty;
    }
}


// ************************************************************************* //
