/*--------------------------------*- C++ -*----------------------------------*\
| =========                 |                                                 |
| \\      /  F ield         | OpenFOAM: The Open Source CFD Toolbox           |
|  \\    /   O peration     | Version:  2406                                  |
|   \\  /    A nd           | Website:  www.openfoam.com                      |
|    \\/     M anipulation  |                                                 |
\*---------------------------------------------------------------------------*/
FoamFile
{
    version     2.0;
    format      ascii;
    arch        "LSB;label=32;scalar=64";
    class       volScalarField;
    location    "1.8";
    object      gradTy;
}
// * * * * * * * * * * * * * * * * * * * * * * * * * * * * * * * * * * * * * //

dimensions      [0 -1 0 1 0 0 0];

internalField   nonuniform List<scalar> 
100
(
-1.42109e-11
-1.77636e-12
5.32907e-12
1.24345e-11
1.77636e-12
-1.77636e-12
-1.77636e-12
3.55271e-12
1.77636e-12
3.55271e-12
-2.30926e-11
-1.77636e-12
1.77636e-11
1.95399e-11
3.55271e-12
8.88178e-12
1.06581e-11
7.10543e-12
1.24345e-11
1.77636e-12
-1.77636e-12
3.55271e-12
1.42109e-11
7.10543e-12
7.10543e-12
1.77636e-11
1.42109e-11
-1.77636e-12
8.88178e-12
8.88178e-12
1.24345e-11
7.10543e-12
-1.24345e-11
-1.42109e-11
-1.06581e-11
5.32907e-12
-8.88178e-12
-7.10543e-12
3.55271e-12
-5.32907e-12
-8.88178e-12
-1.06581e-11
-1.77636e-11
-1.77636e-11
-1.77636e-11
-7.10543e-12
-7.10543e-12
1.77636e-12
3.55271e-12
-1.59872e-11
-3.55271e-12
0
-1.77636e-12
-1.77636e-12
1.59872e-11
1.59872e-11
1.06581e-11
7.10543e-12
-5.32907e-12
-5.32907e-12
1.59872e-11
2.4869e-11
2.66454e-11
8.88178e-12
1.95399e-11
2.30926e-11
2.30926e-11
1.42109e-11
0
-1.42109e-11
2.30926e-11
2.4869e-11
3.01981e-11
1.59872e-11
1.42109e-11
1.59872e-11
1.59872e-11
1.06581e-11
-8.88178e-12
-2.30926e-11
1.42109e-11
3.55271e-12
3.55271e-12
8.88178e-12
3.55271e-12
-7.10543e-12
0
-1.06581e-11
-3.19744e-11
-1.77636e-11
1.06581e-11
-3.55271e-12
-3.55271e-12
1.77636e-12
-3.55271e-12
-8.88178e-12
-8.88178e-12
-1.06581e-11
-1.77636e-11
-5.32907e-12
)
;

boundaryField
{
    left
    {
        type            calculated;
        value           nonuniform List<scalar> 10(-1.42109e-11 -2.30926e-11 -1.77636e-12 1.24345e-11 -8.88178e-12 -3.55271e-12 1.59872e-11 2.30926e-11 1.42109e-11 1.06581e-11);
    }
    right
    {
        type            calculated;
        value           nonuniform List<scalar> 10(3.55271e-12 1.77636e-12 8.88178e-12 -5.32907e-12 -1.59872e-11 -5.32907e-12 -1.42109e-11 -2.30926e-11 -1.77636e-11 -5.32907e-12);
    }
    top
    {
        type            calculated;
        value           uniform 0;
    }
    bottom
    {
        type            calculated;
        value           uniform 0;
    }
    defaultFaces
    {
        type            empty;
    }
}


// ************************************************************************* //
