/*--------------------------------*- C++ -*----------------------------------*\
| =========                 |                                                 |
| \\      /  F ield         | OpenFOAM: The Open Source CFD Toolbox           |
|  \\    /   O peration     | Version:  2406                                  |
|   \\  /    A nd           | Website:  www.openfoam.com                      |
|    \\/     M anipulation  |                                                 |
\*---------------------------------------------------------------------------*/
FoamFile
{
    version     2.0;
    format      ascii;
    arch        "LSB;label=32;scalar=64";
    class       volScalarField;
    location    "8.7";
    object      gradTx;
}
// * * * * * * * * * * * * * * * * * * * * * * * * * * * * * * * * * * * * * //

dimensions      [0 -1 0 1 0 0 0];

internalField   nonuniform List<scalar> 
100
(
-9.0072e+19
-1.80144e+20
-3.60288e+19
2.70216e+19
-1.53122e+20
-1.26101e+20
1.80144e+19
0
2.70216e+19
6.30504e+19
-1.80144e+19
-6.30504e+19
8.10648e+19
1.80144e+19
-2.34187e+20
-1.26101e+20
3.60288e+19
-1.80144e+19
2.70216e+19
5.40432e+19
5.40432e+19
1.26101e+20
1.26101e+20
-6.30504e+19
-2.43194e+20
-9.90792e+19
9.0072e+18
2.70216e+19
9.0072e+18
2.70216e+19
2.70216e+19
6.30504e+19
8.10648e+19
-4.5036e+19
-1.35108e+20
-1.17094e+20
-7.20576e+19
2.70216e+19
8.10648e+19
4.5036e+19
1.80144e+19
-9.0072e+18
4.5036e+19
-6.30504e+19
-1.6213e+20
-9.90792e+19
0
6.30504e+19
0
-3.60288e+19
1.80144e+19
-3.60288e+19
2.70216e+19
-3.60288e+19
-1.17094e+20
-8.10648e+19
-2.70216e+19
9.0072e+19
9.0072e+18
-5.40432e+19
3.60288e+19
-1.80144e+19
0
-9.0072e+18
-9.0072e+19
-9.0072e+19
-4.5036e+19
9.0072e+18
-7.20576e+19
-8.10648e+19
4.5036e+19
1.80144e+19
-6.30504e+19
-5.40432e+19
-7.20576e+19
-9.90792e+19
-8.10648e+19
-2.70216e+19
-1.44115e+20
-1.44115e+20
8.10648e+19
4.5036e+19
-6.30504e+19
-9.90792e+19
-8.10648e+19
-8.10648e+19
-1.17094e+20
-1.6213e+20
-2.43194e+20
-1.35108e+20
-1.80144e+19
-3.60288e+19
-1.80144e+19
-8.10648e+19
-1.6213e+20
-9.0072e+19
-1.08086e+20
-2.52202e+20
-2.16173e+20
-7.20576e+19
)
;

boundaryField
{
    left
    {
        type            calculated;
        value           uniform 0;
    }
    right
    {
        type            calculated;
        value           uniform 0;
    }
    top
    {
        type            calculated;
        value           nonuniform List<scalar> 10(-1.80144e+19 -3.60288e+19 -1.80144e+19 -8.10648e+19 -1.6213e+20 -9.0072e+19 -1.08086e+20 -2.52202e+20 -2.16173e+20 -7.20576e+19);
    }
    bottom
    {
        type            calculated;
        value           nonuniform List<scalar> 10(-9.0072e+19 -1.80144e+20 -3.60288e+19 2.70216e+19 -1.53122e+20 -1.26101e+20 1.80144e+19 0 2.70216e+19 6.30504e+19);
    }
    defaultFaces
    {
        type            empty;
    }
}


// ************************************************************************* //
