/*--------------------------------*- C++ -*----------------------------------*\
| =========                 |                                                 |
| \\      /  F ield         | OpenFOAM: The Open Source CFD Toolbox           |
|  \\    /   O peration     | Version:  2406                                  |
|   \\  /    A nd           | Website:  www.openfoam.com                      |
|    \\/     M anipulation  |                                                 |
\*---------------------------------------------------------------------------*/
FoamFile
{
    version     2.0;
    format      ascii;
    arch        "LSB;label=32;scalar=64";
    class       volVectorField;
    location    "0.05";
    object      flux;
}
// * * * * * * * * * * * * * * * * * * * * * * * * * * * * * * * * * * * * * //

dimensions      [0 1 -1 1 0 0 0];

internalField   nonuniform List<vector> 
100
(
(0 -5.29396e-22 0)
(-1.58819e-21 0 0)
(0 5.29396e-22 0)
(1.05879e-21 5.29396e-22 0)
(-5.29396e-22 0 0)
(-5.29396e-22 -5.29396e-22 0)
(5.29396e-22 5.29396e-22 0)
(-5.29396e-22 5.29396e-22 0)
(5.29396e-22 0 0)
(1.05879e-21 0 0)
(5.29396e-22 -1.05879e-21 0)
(-1.58819e-21 -5.29396e-22 0)
(1.05879e-21 1.58819e-21 0)
(1.05879e-21 5.29396e-22 0)
(-2.11758e-21 -1.05879e-21 0)
(5.29396e-22 5.29396e-22 0)
(1.05879e-21 5.29396e-22 0)
(-5.29396e-22 5.29396e-22 0)
(-5.29396e-22 2.11758e-21 0)
(5.29396e-22 -1.05879e-21 0)
(1.05879e-21 0 0)
(1.58819e-21 -1.05879e-21 0)
(1.05879e-21 1.05879e-21 0)
(-5.29396e-22 -5.29396e-22 0)
(-1.05879e-21 0 0)
(1.05879e-21 5.29396e-22 0)
(5.29396e-22 0 0)
(5.29396e-22 -5.29396e-22 0)
(-1.05879e-21 1.05879e-21 0)
(-1.05879e-21 1.05879e-21 0)
(-5.29396e-22 1.05879e-21 0)
(0 1.05879e-21 0)
(1.05879e-21 -1.05879e-21 0)
(-5.29396e-22 1.05879e-21 0)
(-1.05879e-21 0 0)
(5.29396e-22 0 0)
(0 -5.29396e-22 0)
(1.05879e-21 0 0)
(5.29396e-22 0 0)
(0 0 0)
(0 -5.29396e-22 0)
(-1.05879e-21 0 0)
(1.58819e-21 -1.05879e-21 0)
(0 -1.05879e-21 0)
(-1.58819e-21 0 0)
(0 0 0)
(0 -1.58819e-21 0)
(1.05879e-21 -5.29396e-22 0)
(0 -1.05879e-21 0)
(-1.58819e-21 -1.58819e-21 0)
(5.29396e-22 -5.29396e-22 0)
(-1.05879e-21 0 0)
(5.29396e-22 0 0)
(5.29396e-22 -5.29396e-22 0)
(0 1.05879e-21 0)
(-5.29396e-22 5.29396e-22 0)
(-5.29396e-22 5.29396e-22 0)
(1.05879e-21 -1.05879e-21 0)
(0 0 0)
(0 5.29396e-22 0)
(1.05879e-21 5.29396e-22 0)
(0 1.05879e-21 0)
(-5.29396e-22 1.58819e-21 0)
(1.05879e-21 -5.29396e-22 0)
(-5.29396e-22 1.05879e-21 0)
(0 5.29396e-22 0)
(-1.05879e-21 5.29396e-22 0)
(0 1.05879e-21 0)
(5.29396e-22 0 0)
(-5.29396e-22 0 0)
(5.29396e-22 -5.29396e-22 0)
(5.29396e-22 5.29396e-22 0)
(-5.29396e-22 1.58819e-21 0)
(0 5.29396e-22 0)
(5.29396e-22 0 0)
(-1.05879e-21 1.05879e-21 0)
(5.29396e-22 0 0)
(5.29396e-22 1.05879e-21 0)
(-1.05879e-21 0 0)
(-1.05879e-21 -1.05879e-21 0)
(1.58819e-21 1.05879e-21 0)
(1.05879e-21 0 0)
(0 -5.29396e-22 0)
(0 5.29396e-22 0)
(0 -5.29396e-22 0)
(-1.05879e-21 -1.05879e-21 0)
(0 1.05879e-21 0)
(0 -5.29396e-22 0)
(-1.58819e-21 -1.05879e-21 0)
(-1.58819e-21 -5.29396e-22 0)
(5.29396e-22 5.29396e-22 0)
(-5.29396e-22 -5.29396e-22 0)
(0 -5.29396e-22 0)
(0 0 0)
(-5.29396e-22 -5.29396e-22 0)
(0 -1.05879e-21 0)
(5.29396e-22 0 0)
(-1.58819e-21 -5.29396e-22 0)
(-5.29396e-22 -1.05879e-21 0)
(0 5.29396e-22 0)
)
;

boundaryField
{
    left
    {
        type            calculated;
        value           nonuniform List<vector> 10((0 -5.29396e-22 0) (0 -1.05879e-21 0) (0 0 0) (0 1.05879e-21 0) (0 -5.29396e-22 0) (0 -5.29396e-22 0) (0 5.29396e-22 0) (0 -5.29396e-22 0) (0 1.05879e-21 0) (0 5.29396e-22 0));
    }
    right
    {
        type            calculated;
        value           nonuniform List<vector> 10((0 0 0) (0 -1.05879e-21 0) (0 1.05879e-21 0) (0 0 0) (0 -1.58819e-21 0) (0 5.29396e-22 0) (0 0 0) (0 -1.05879e-21 0) (0 -5.29396e-22 0) (0 5.29396e-22 0));
    }
    top
    {
        type            calculated;
        value           nonuniform List<vector> 10((5.29396e-22 0 0) (-5.29396e-22 0 0) (0 0 0) (0 0 0) (-5.29396e-22 0 0) (0 0 0) (5.29396e-22 0 0) (-1.58819e-21 0 0) (-5.29396e-22 0 0) (0 0 0));
    }
    bottom
    {
        type            calculated;
        value           nonuniform List<vector> 10((0 0 0) (-1.58819e-21 0 0) (0 0 0) (1.05879e-21 0 0) (-5.29396e-22 0 0) (-5.29396e-22 0 0) (5.29396e-22 0 0) (-5.29396e-22 0 0) (5.29396e-22 0 0) (1.05879e-21 0 0));
    }
    defaultFaces
    {
        type            empty;
    }
}


// ************************************************************************* //
