/*--------------------------------*- C++ -*----------------------------------*\
| =========                 |                                                 |
| \\      /  F ield         | OpenFOAM: The Open Source CFD Toolbox           |
|  \\    /   O peration     | Version:  2406                                  |
|   \\  /    A nd           | Website:  www.openfoam.com                      |
|    \\/     M anipulation  |                                                 |
\*---------------------------------------------------------------------------*/
FoamFile
{
    version     2.0;
    format      ascii;
    arch        "LSB;label=32;scalar=64";
    class       volScalarField;
    location    "10";
    object      gradTx;
}
// * * * * * * * * * * * * * * * * * * * * * * * * * * * * * * * * * * * * * //

dimensions      [0 -1 0 1 0 0 0];

internalField   nonuniform List<scalar> 
100
(
-4.72237e+25
-9.44473e+25
-1.88895e+25
-9.44473e+24
-9.91697e+25
-8.02802e+25
4.72237e+24
-4.72237e+24
1.88895e+25
4.72237e+25
-2.36118e+25
-4.72237e+25
3.77789e+25
-1.41671e+25
-1.36949e+26
-8.50026e+25
1.88895e+25
-9.44473e+24
0
3.30566e+25
2.83342e+25
5.1946e+25
7.08355e+25
-3.77789e+25
-1.6056e+26
-6.13908e+25
2.83342e+25
4.72237e+24
0
4.72237e+24
1.41671e+25
2.36118e+25
3.77789e+25
-2.83342e+25
-1.03892e+26
-8.02802e+25
-3.30566e+25
1.88895e+25
5.1946e+25
2.83342e+25
-4.72237e+24
-2.83342e+25
1.88895e+25
-4.25013e+25
-1.18059e+26
-5.66684e+25
-4.72237e+24
3.77789e+25
-9.44473e+24
-2.83342e+25
4.72237e+24
-4.25013e+25
1.88895e+25
-9.44473e+24
-7.55579e+25
-6.13908e+25
-2.36118e+25
5.66684e+25
-1.88895e+25
-4.72237e+25
0
-1.41671e+25
1.41671e+25
-9.44473e+24
-4.72237e+25
-5.66684e+25
-4.72237e+25
-4.72237e+24
-3.77789e+25
-4.72237e+25
1.88895e+25
0
-2.36118e+25
-4.25013e+25
-4.25013e+25
-4.72237e+25
-6.61131e+25
-1.88895e+25
-8.9725e+25
-8.50026e+25
5.1946e+25
3.30566e+25
-5.66684e+25
-7.08355e+25
-2.83342e+25
-5.1946e+25
-7.55579e+25
-9.91697e+25
-1.41671e+26
-8.50026e+25
0
-3.30566e+25
-2.83342e+25
-6.13908e+25
-6.13908e+25
-3.30566e+25
-7.55579e+25
-1.6056e+26
-1.27504e+26
-3.77789e+25
)
;

boundaryField
{
    left
    {
        type            calculated;
        value           uniform 0;
    }
    right
    {
        type            calculated;
        value           uniform 0;
    }
    top
    {
        type            calculated;
        value           nonuniform List<scalar> 10(0 -3.30566e+25 -2.83342e+25 -6.13908e+25 -6.13908e+25 -3.30566e+25 -7.55579e+25 -1.6056e+26 -1.27504e+26 -3.77789e+25);
    }
    bottom
    {
        type            calculated;
        value           nonuniform List<scalar> 10(-4.72237e+25 -9.44473e+25 -1.88895e+25 -9.44473e+24 -9.91697e+25 -8.02802e+25 4.72237e+24 -4.72237e+24 1.88895e+25 4.72237e+25);
    }
    defaultFaces
    {
        type            empty;
    }
}


// ************************************************************************* //
