/*--------------------------------*- C++ -*----------------------------------*\
| =========                 |                                                 |
| \\      /  F ield         | OpenFOAM: The Open Source CFD Toolbox           |
|  \\    /   O peration     | Version:  2406                                  |
|   \\  /    A nd           | Website:  www.openfoam.com                      |
|    \\/     M anipulation  |                                                 |
\*---------------------------------------------------------------------------*/
FoamFile
{
    version     2.0;
    format      ascii;
    arch        "LSB;label=32;scalar=64";
    class       volVectorField;
    location    "0.1";
    object      flux;
}
// * * * * * * * * * * * * * * * * * * * * * * * * * * * * * * * * * * * * * //

dimensions      [0 1 -1 1 0 0 0];

internalField   nonuniform List<vector> 
100
(
(-2.11758e-21 -3.17637e-21 0)
(-6.35275e-21 -2.11758e-21 0)
(-1.05879e-21 0 0)
(4.23516e-21 2.11758e-21 0)
(-4.23516e-21 -1.05879e-21 0)
(-4.23516e-21 -4.23516e-21 0)
(2.11758e-21 2.11758e-21 0)
(2.11758e-21 -1.05879e-21 0)
(1.05879e-21 -3.17637e-21 0)
(1.05879e-21 -1.05879e-21 0)
(-1.05879e-21 -6.35275e-21 0)
(-4.23516e-21 -2.11758e-21 0)
(2.11758e-21 8.47033e-21 0)
(3.17637e-21 4.23516e-21 0)
(-9.52912e-21 -1.05879e-21 0)
(-3.17637e-21 -1.05879e-21 0)
(5.29396e-21 1.05879e-21 0)
(-1.05879e-21 0 0)
(1.05879e-21 4.23516e-21 0)
(3.17637e-21 2.11758e-21 0)
(4.23516e-21 0 0)
(7.41154e-21 2.11758e-21 0)
(5.29396e-21 4.23516e-21 0)
(-5.29396e-21 3.17637e-21 0)
(-9.52912e-21 1.05879e-21 0)
(0 5.29396e-21 0)
(4.23516e-21 3.17637e-21 0)
(2.11758e-21 -2.11758e-21 0)
(1.05879e-21 3.17637e-21 0)
(0 1.05879e-21 0)
(0 4.23516e-21 0)
(1.05879e-21 0 0)
(4.23516e-21 -5.29396e-21 0)
(-1.05879e-21 -4.23516e-21 0)
(-6.35275e-21 -4.23516e-21 0)
(-1.05879e-21 1.05879e-21 0)
(-1.05879e-21 -2.11758e-21 0)
(-1.05879e-21 -1.05879e-21 0)
(3.17637e-21 2.11758e-21 0)
(3.17637e-21 -3.17637e-21 0)
(-2.11758e-21 -3.17637e-21 0)
(-1.05879e-21 -3.17637e-21 0)
(2.11758e-21 -7.41154e-21 0)
(-4.23516e-21 -5.29396e-21 0)
(-6.35275e-21 -6.35275e-21 0)
(4.23516e-21 -1.05879e-21 0)
(2.11758e-21 -4.23516e-21 0)
(5.29396e-21 1.05879e-21 0)
(-1.05879e-21 4.23516e-21 0)
(-5.29396e-21 -3.17637e-21 0)
(2.11758e-21 -6.35275e-21 0)
(-4.23516e-21 0 0)
(2.11758e-21 -1.05879e-21 0)
(0 1.05879e-21 0)
(-2.11758e-21 7.41154e-21 0)
(0 5.29396e-21 0)
(0 3.17637e-21 0)
(9.52912e-21 2.11758e-21 0)
(0 -2.11758e-21 0)
(-5.29396e-21 0 0)
(4.23516e-21 3.17637e-21 0)
(1.05879e-21 3.17637e-21 0)
(3.17637e-21 5.29396e-21 0)
(5.29396e-21 0 0)
(-2.11758e-21 4.23516e-21 0)
(0 2.11758e-21 0)
(0 4.23516e-21 0)
(0 2.11758e-21 0)
(-2.11758e-21 0 0)
(-4.23516e-21 0 0)
(0 4.23516e-21 0)
(0 2.11758e-21 0)
(0 7.41154e-21 0)
(-1.05879e-21 0 0)
(0 -1.05879e-21 0)
(-1.05879e-21 0 0)
(1.05879e-21 2.11758e-21 0)
(5.29396e-21 1.05879e-21 0)
(-4.23516e-21 0 0)
(-4.23516e-21 -1.05879e-21 0)
(3.17637e-21 0 0)
(4.23516e-21 -1.05879e-21 0)
(0 0 0)
(-4.23516e-21 1.05879e-21 0)
(0 -1.05879e-21 0)
(3.17637e-21 -3.17637e-21 0)
(-1.05879e-21 2.11758e-21 0)
(-3.17637e-21 -1.05879e-21 0)
(-5.29396e-21 -8.47033e-21 0)
(-4.23516e-21 -3.17637e-21 0)
(0 0 0)
(0 -3.17637e-21 0)
(2.11758e-21 -4.23516e-21 0)
(-1.05879e-21 2.11758e-21 0)
(-5.29396e-21 -2.11758e-21 0)
(1.05879e-21 -6.35275e-21 0)
(4.23516e-21 -3.17637e-21 0)
(-5.29396e-21 0 0)
(-4.23516e-21 -5.29396e-21 0)
(1.05879e-21 1.05879e-21 0)
)
;

boundaryField
{
    left
    {
        type            calculated;
        value           nonuniform List<vector> 10((0 -3.17637e-21 0) (0 -6.35275e-21 0) (0 0 0) (0 4.23516e-21 0) (0 -3.17637e-21 0) (0 -6.35275e-21 0) (0 3.17637e-21 0) (0 4.23516e-21 0) (0 0 0) (0 0 0));
    }
    right
    {
        type            calculated;
        value           nonuniform List<vector> 10((0 -1.05879e-21 0) (0 2.11758e-21 0) (0 1.05879e-21 0) (0 -3.17637e-21 0) (0 -3.17637e-21 0) (0 0 0) (0 0 0) (0 -1.05879e-21 0) (0 -3.17637e-21 0) (0 1.05879e-21 0));
    }
    top
    {
        type            calculated;
        value           nonuniform List<vector> 10((0 0 0) (0 0 0) (2.11758e-21 0 0) (-1.05879e-21 0 0) (-5.29396e-21 0 0) (1.05879e-21 0 0) (4.23516e-21 0 0) (-5.29396e-21 0 0) (-4.23516e-21 0 0) (1.05879e-21 0 0));
    }
    bottom
    {
        type            calculated;
        value           nonuniform List<vector> 10((-2.11758e-21 0 0) (-6.35275e-21 0 0) (-1.05879e-21 0 0) (4.23516e-21 0 0) (-4.23516e-21 0 0) (-4.23516e-21 0 0) (2.11758e-21 0 0) (2.11758e-21 0 0) (1.05879e-21 0 0) (1.05879e-21 0 0));
    }
    defaultFaces
    {
        type            empty;
    }
}


// ************************************************************************* //
