/*--------------------------------*- C++ -*----------------------------------*\
| =========                 |                                                 |
| \\      /  F ield         | OpenFOAM: The Open Source CFD Toolbox           |
|  \\    /   O peration     | Version:  2406                                  |
|   \\  /    A nd           | Website:  www.openfoam.com                      |
|    \\/     M anipulation  |                                                 |
\*---------------------------------------------------------------------------*/
FoamFile
{
    version     2.0;
    format      ascii;
    arch        "LSB;label=32;scalar=64";
    class       volVectorField;
    location    "5.6";
    object      flux;
}
// * * * * * * * * * * * * * * * * * * * * * * * * * * * * * * * * * * * * * //

dimensions      [0 1 -1 1 0 0 0];

internalField   nonuniform List<vector> 
100
(
(-51200 -51200 0)
(-92160 -10240 0)
(5120 25600 0)
(35840 35840 0)
(-112640 10240 0)
(-87040 0 0)
(35840 5120 0)
(25600 5120 0)
(30720 10240 0)
(35840 0 0)
(-10240 -92160 0)
(-10240 0 0)
(56320 87040 0)
(10240 76800 0)
(-153600 5120 0)
(-81920 20480 0)
(35840 35840 0)
(25600 25600 0)
(30720 35840 0)
(25600 20480 0)
(40960 0 0)
(81920 20480 0)
(71680 35840 0)
(-35840 5120 0)
(-158720 25600 0)
(-66560 76800 0)
(35840 46080 0)
(35840 -10240 0)
(25600 46080 0)
(15360 46080 0)
(15360 61440 0)
(25600 25600 0)
(46080 -25600 0)
(-15360 -40960 0)
(-76800 -30720 0)
(-66560 25600 0)
(-46080 5120 0)
(25600 -5120 0)
(71680 15360 0)
(35840 -30720 0)
(5120 -10240 0)
(-10240 -10240 0)
(20480 -66560 0)
(-46080 -51200 0)
(-87040 -66560 0)
(-30720 -25600 0)
(5120 -35840 0)
(40960 5120 0)
(5120 0 0)
(-35840 -61440 0)
(5120 0 0)
(-25600 0 0)
(5120 0 0)
(-15360 0 0)
(-56320 46080 0)
(-30720 51200 0)
(-20480 30720 0)
(71680 10240 0)
(0 -20480 0)
(-35840 -25600 0)
(15360 81920 0)
(-5120 97280 0)
(5120 107520 0)
(5120 56320 0)
(-35840 92160 0)
(-40960 87040 0)
(-30720 76800 0)
(0 56320 0)
(-40960 -5120 0)
(-40960 -46080 0)
(15360 92160 0)
(-5120 133120 0)
(-30720 122880 0)
(-35840 61440 0)
(-20480 56320 0)
(-51200 61440 0)
(-46080 66560 0)
(-25600 35840 0)
(-92160 -25600 0)
(-71680 -71680 0)
(56320 56320 0)
(25600 51200 0)
(-51200 46080 0)
(-66560 40960 0)
(-35840 10240 0)
(-40960 -30720 0)
(-61440 5120 0)
(-87040 -35840 0)
(-138240 -107520 0)
(-87040 -46080 0)
(10240 46080 0)
(-25600 0 0)
(-40960 -10240 0)
(-61440 15360 0)
(-92160 -10240 0)
(-56320 -30720 0)
(-56320 -25600 0)
(-138240 -35840 0)
(-102400 -66560 0)
(-20480 -5120 0)
)
;

boundaryField
{
    left
    {
        type            calculated;
        value           nonuniform List<vector> 10((0 -51200 0) (0 -92160 0) (0 0 0) (0 61440 0) (0 -10240 0) (0 0 0) (0 81920 0) (0 92160 0) (0 56320 0) (0 46080 0));
    }
    right
    {
        type            calculated;
        value           nonuniform List<vector> 10((0 0 0) (0 20480 0) (0 46080 0) (0 -30720 0) (0 -61440 0) (0 -25600 0) (0 -46080 0) (0 -71680 0) (0 -46080 0) (0 -5120 0));
    }
    top
    {
        type            calculated;
        value           nonuniform List<vector> 10((10240 0 0) (-25600 0 0) (-40960 0 0) (-61440 0 0) (-92160 0 0) (-56320 0 0) (-56320 0 0) (-138240 0 0) (-102400 0 0) (-20480 0 0));
    }
    bottom
    {
        type            calculated;
        value           nonuniform List<vector> 10((-51200 0 0) (-92160 0 0) (5120 0 0) (35840 0 0) (-112640 0 0) (-87040 0 0) (35840 0 0) (25600 0 0) (30720 0 0) (35840 0 0));
    }
    defaultFaces
    {
        type            empty;
    }
}


// ************************************************************************* //
