/*--------------------------------*- C++ -*----------------------------------*\
| =========                 |                                                 |
| \\      /  F ield         | OpenFOAM: The Open Source CFD Toolbox           |
|  \\    /   O peration     | Version:  2406                                  |
|   \\  /    A nd           | Website:  www.openfoam.com                      |
|    \\/     M anipulation  |                                                 |
\*---------------------------------------------------------------------------*/
FoamFile
{
    version     2.0;
    format      ascii;
    arch        "LSB;label=32;scalar=64";
    class       volScalarField;
    location    "5.6";
    object      gradTx;
}
// * * * * * * * * * * * * * * * * * * * * * * * * * * * * * * * * * * * * * //

dimensions      [0 -1 0 1 0 0 0];

internalField   nonuniform List<scalar> 
100
(
-1.28e+06
-2.304e+06
128000
896000
-2.816e+06
-2.176e+06
896000
640000
768000
896000
-256000
-256000
1.408e+06
256000
-3.84e+06
-2.048e+06
896000
640000
768000
640000
1.024e+06
2.048e+06
1.792e+06
-896000
-3.968e+06
-1.664e+06
896000
896000
640000
384000
384000
640000
1.152e+06
-384000
-1.92e+06
-1.664e+06
-1.152e+06
640000
1.792e+06
896000
128000
-256000
512000
-1.152e+06
-2.176e+06
-768000
128000
1.024e+06
128000
-896000
128000
-640000
128000
-384000
-1.408e+06
-768000
-512000
1.792e+06
0
-896000
384000
-128000
128000
128000
-896000
-1.024e+06
-768000
0
-1.024e+06
-1.024e+06
384000
-128000
-768000
-896000
-512000
-1.28e+06
-1.152e+06
-640000
-2.304e+06
-1.792e+06
1.408e+06
640000
-1.28e+06
-1.664e+06
-896000
-1.024e+06
-1.536e+06
-2.176e+06
-3.456e+06
-2.176e+06
256000
-640000
-1.024e+06
-1.536e+06
-2.304e+06
-1.408e+06
-1.408e+06
-3.456e+06
-2.56e+06
-512000
)
;

boundaryField
{
    left
    {
        type            calculated;
        value           uniform 0;
    }
    right
    {
        type            calculated;
        value           uniform 0;
    }
    top
    {
        type            calculated;
        value           nonuniform List<scalar> 10(256000 -640000 -1.024e+06 -1.536e+06 -2.304e+06 -1.408e+06 -1.408e+06 -3.456e+06 -2.56e+06 -512000);
    }
    bottom
    {
        type            calculated;
        value           nonuniform List<scalar> 10(-1.28e+06 -2.304e+06 128000 896000 -2.816e+06 -2.176e+06 896000 640000 768000 896000);
    }
    defaultFaces
    {
        type            empty;
    }
}


// ************************************************************************* //
