/*--------------------------------*- C++ -*----------------------------------*\
| =========                 |                                                 |
| \\      /  F ield         | OpenFOAM: The Open Source CFD Toolbox           |
|  \\    /   O peration     | Version:  2406                                  |
|   \\  /    A nd           | Website:  www.openfoam.com                      |
|    \\/     M anipulation  |                                                 |
\*---------------------------------------------------------------------------*/
FoamFile
{
    version     2.0;
    format      ascii;
    arch        "LSB;label=32;scalar=64";
    class       volScalarField;
    location    "2.75";
    object      gradTx;
}
// * * * * * * * * * * * * * * * * * * * * * * * * * * * * * * * * * * * * * //

dimensions      [0 -1 0 1 0 0 0];

internalField   nonuniform List<scalar> 
100
(
-2.03727e-07
-4.07454e-07
2.91038e-08
1.74623e-07
-4.07454e-07
-4.65661e-07
2.91038e-08
-2.91038e-08
5.82077e-08
2.32831e-07
-5.82077e-08
-1.16415e-07
2.61934e-07
8.73115e-08
-6.69388e-07
-4.36557e-07
5.82077e-08
-2.91038e-08
1.16415e-07
1.45519e-07
1.45519e-07
4.07454e-07
4.36557e-07
-1.45519e-07
-7.27596e-07
-3.20142e-07
8.73115e-08
5.82077e-08
1.16415e-07
8.73115e-08
1.16415e-07
1.45519e-07
1.74623e-07
-5.82077e-08
-4.07454e-07
-3.7835e-07
-2.61934e-07
1.45519e-07
3.49246e-07
1.74623e-07
-2.91038e-08
-2.91038e-08
1.16415e-07
-2.03727e-07
-4.94765e-07
-3.20142e-07
-2.91038e-08
3.49246e-07
8.73115e-08
-1.45519e-07
8.73115e-08
-8.73115e-08
2.91038e-08
-2.91038e-08
-2.61934e-07
-2.91038e-07
-2.91038e-08
3.20142e-07
-2.91038e-08
-2.61934e-07
1.45519e-07
8.73115e-08
5.82077e-08
1.16415e-07
-2.32831e-07
-2.91038e-07
-2.61934e-07
0
-1.16415e-07
-2.61934e-07
1.45519e-07
8.73115e-08
-1.45519e-07
-8.73115e-08
-1.74623e-07
-2.61934e-07
-1.74623e-07
-5.82077e-08
-3.20142e-07
-3.49246e-07
3.20142e-07
1.45519e-07
-2.32831e-07
-1.74623e-07
-1.74623e-07
-1.74623e-07
-2.61934e-07
-3.20142e-07
-6.69388e-07
-4.94765e-07
5.82077e-08
-1.74623e-07
-1.45519e-07
-1.74623e-07
-2.91038e-07
-2.03727e-07
-2.61934e-07
-7.27596e-07
-5.82077e-07
-1.45519e-07
)
;

boundaryField
{
    left
    {
        type            calculated;
        value           uniform 0;
    }
    right
    {
        type            calculated;
        value           uniform 0;
    }
    top
    {
        type            calculated;
        value           nonuniform List<scalar> 10(5.82077e-08 -1.74623e-07 -1.45519e-07 -1.74623e-07 -2.91038e-07 -2.03727e-07 -2.61934e-07 -7.27596e-07 -5.82077e-07 -1.45519e-07);
    }
    bottom
    {
        type            calculated;
        value           nonuniform List<scalar> 10(-2.03727e-07 -4.07454e-07 2.91038e-08 1.74623e-07 -4.07454e-07 -4.65661e-07 2.91038e-08 -2.91038e-08 5.82077e-08 2.32831e-07);
    }
    defaultFaces
    {
        type            empty;
    }
}


// ************************************************************************* //
