/*--------------------------------*- C++ -*----------------------------------*\
| =========                 |                                                 |
| \\      /  F ield         | OpenFOAM: The Open Source CFD Toolbox           |
|  \\    /   O peration     | Version:  2406                                  |
|   \\  /    A nd           | Website:  www.openfoam.com                      |
|    \\/     M anipulation  |                                                 |
\*---------------------------------------------------------------------------*/
FoamFile
{
    version     2.0;
    format      ascii;
    arch        "LSB;label=32;scalar=64";
    class       volScalarField;
    location    "2.75";
    object      gradTy;
}
// * * * * * * * * * * * * * * * * * * * * * * * * * * * * * * * * * * * * * //

dimensions      [0 -1 0 1 0 0 0];

internalField   nonuniform List<scalar> 
100
(
-1.74623e-07
2.91038e-08
1.16415e-07
1.74623e-07
2.91038e-08
-2.91038e-08
2.91038e-08
0
8.73115e-08
0
-4.36557e-07
-5.82077e-08
4.07454e-07
3.7835e-07
0
2.91038e-08
2.03727e-07
5.82077e-08
2.91038e-07
1.45519e-07
-5.82077e-08
5.82077e-08
1.74623e-07
2.91038e-08
8.73115e-08
2.91038e-07
1.45519e-07
0
2.61934e-07
2.61934e-07
3.49246e-07
1.45519e-07
-1.74623e-07
-2.61934e-07
-2.03727e-07
0
-2.03727e-07
-8.73115e-08
1.16415e-07
-1.16415e-07
-1.45519e-07
-1.74623e-07
-2.61934e-07
-2.91038e-07
-2.91038e-07
-1.74623e-07
-1.74623e-07
5.82077e-08
0
-3.7835e-07
-1.16415e-07
2.91038e-08
-2.91038e-08
2.91038e-08
2.61934e-07
3.49246e-07
2.61934e-07
2.91038e-08
-8.73115e-08
-1.74623e-07
2.91038e-07
4.65661e-07
4.07454e-07
2.61934e-07
3.7835e-07
3.20142e-07
3.7835e-07
2.32831e-07
0
-8.73115e-08
3.7835e-07
4.65661e-07
4.36557e-07
2.03727e-07
1.74623e-07
2.61934e-07
2.91038e-07
2.61934e-07
-2.91038e-08
-2.91038e-07
3.20142e-07
2.32831e-07
2.03727e-07
1.45519e-07
8.73115e-08
2.91038e-08
1.74623e-07
-5.82077e-08
-5.23869e-07
-2.91038e-07
2.61934e-07
0
-5.82077e-08
5.82077e-08
-5.82077e-08
-5.82077e-08
-2.91038e-08
-1.16415e-07
-3.7835e-07
-5.82077e-08
)
;

boundaryField
{
    left
    {
        type            calculated;
        value           nonuniform List<scalar> 10(-1.74623e-07 -4.36557e-07 -5.82077e-08 3.49246e-07 -1.45519e-07 -1.16415e-07 2.91038e-07 3.7835e-07 3.20142e-07 2.61934e-07);
    }
    right
    {
        type            calculated;
        value           nonuniform List<scalar> 10(0 1.45519e-07 2.61934e-07 -1.16415e-07 -3.7835e-07 -1.74623e-07 -8.73115e-08 -2.91038e-07 -2.91038e-07 -5.82077e-08);
    }
    top
    {
        type            calculated;
        value           uniform 0;
    }
    bottom
    {
        type            calculated;
        value           uniform 0;
    }
    defaultFaces
    {
        type            empty;
    }
}


// ************************************************************************* //
