/*--------------------------------*- C++ -*----------------------------------*\
| =========                 |                                                 |
| \\      /  F ield         | OpenFOAM: The Open Source CFD Toolbox           |
|  \\    /   O peration     | Version:  2406                                  |
|   \\  /    A nd           | Website:  www.openfoam.com                      |
|    \\/     M anipulation  |                                                 |
\*---------------------------------------------------------------------------*/
FoamFile
{
    version     2.0;
    format      ascii;
    arch        "LSB;label=32;scalar=64";
    class       volScalarField;
    location    "6.6";
    object      gradTy;
}
// * * * * * * * * * * * * * * * * * * * * * * * * * * * * * * * * * * * * * //

dimensions      [0 -1 0 1 0 0 0];

internalField   nonuniform List<scalar> 
100
(
-2.93601e+10
0
2.09715e+10
3.35544e+10
4.1943e+09
-1.25829e+10
-8.38861e+09
4.1943e+09
-4.1943e+09
0
-6.29146e+10
-4.1943e+09
6.29146e+10
6.29146e+10
1.67772e+10
1.25829e+10
2.51658e+10
1.25829e+10
2.09715e+10
0
-4.1943e+09
4.1943e+09
3.77487e+10
1.67772e+10
2.51658e+10
5.4526e+10
2.09715e+10
-8.38861e+09
2.51658e+10
2.09715e+10
4.1943e+10
2.93601e+10
-1.25829e+10
-3.35544e+10
-2.51658e+10
8.38861e+09
0
0
1.67772e+10
-1.25829e+10
0
-1.25829e+10
-3.77487e+10
-2.51658e+10
-3.77487e+10
0
-1.25829e+10
0
4.1943e+09
-3.77487e+10
0
1.67772e+10
4.1943e+09
4.1943e+09
3.77487e+10
4.1943e+10
3.77487e+10
1.67772e+10
-1.67772e+10
-1.67772e+10
5.87203e+10
7.13032e+10
7.54975e+10
3.77487e+10
5.03316e+10
5.03316e+10
5.03316e+10
3.77487e+10
8.38861e+09
-2.51658e+10
7.54975e+10
8.80804e+10
8.38861e+10
5.4526e+10
5.03316e+10
4.61373e+10
2.51658e+10
2.09715e+10
-2.93601e+10
-5.4526e+10
5.4526e+10
3.35544e+10
3.35544e+10
3.35544e+10
2.09715e+10
0
4.1943e+09
-2.93601e+10
-8.38861e+10
-4.1943e+10
2.51658e+10
-4.1943e+09
-1.25829e+10
4.1943e+09
-8.38861e+09
-1.25829e+10
-8.38861e+09
-3.35544e+10
-4.1943e+10
-1.25829e+10
)
;

boundaryField
{
    left
    {
        type            calculated;
        value           nonuniform List<scalar> 10(-2.93601e+10 -6.29146e+10 -4.1943e+09 4.1943e+10 0 0 5.87203e+10 7.54975e+10 5.4526e+10 2.51658e+10);
    }
    right
    {
        type            calculated;
        value           nonuniform List<scalar> 10(0 0 2.09715e+10 -1.25829e+10 -3.77487e+10 -1.67772e+10 -2.51658e+10 -5.4526e+10 -4.1943e+10 -1.25829e+10);
    }
    top
    {
        type            calculated;
        value           uniform 0;
    }
    bottom
    {
        type            calculated;
        value           uniform 0;
    }
    defaultFaces
    {
        type            empty;
    }
}


// ************************************************************************* //
