/*--------------------------------*- C++ -*----------------------------------*\
| =========                 |                                                 |
| \\      /  F ield         | OpenFOAM: The Open Source CFD Toolbox           |
|  \\    /   O peration     | Version:  2406                                  |
|   \\  /    A nd           | Website:  www.openfoam.com                      |
|    \\/     M anipulation  |                                                 |
\*---------------------------------------------------------------------------*/
FoamFile
{
    version     2.0;
    format      ascii;
    arch        "LSB;label=32;scalar=64";
    class       volScalarField;
    location    "0.2";
    object      gradTx;
}
// * * * * * * * * * * * * * * * * * * * * * * * * * * * * * * * * * * * * * //

dimensions      [0 -1 0 1 0 0 0];

internalField   nonuniform List<scalar> 
100
(
-5.29396e-19
-1.27055e-18
0
4.23516e-19
-5.29396e-19
-3.17637e-19
3.17637e-19
0
2.11758e-19
4.23516e-19
-4.23516e-19
-7.41154e-19
6.35275e-19
5.29396e-19
-1.37643e-18
-3.17637e-19
6.35275e-19
-1.05879e-19
1.05879e-19
4.23516e-19
2.11758e-19
6.35275e-19
9.52912e-19
-2.11758e-19
-1.90582e-18
-2.11758e-19
9.52912e-19
1.05879e-19
1.05879e-19
4.23516e-19
3.17637e-19
4.23516e-19
7.41154e-19
-1.05879e-19
-8.47033e-19
-3.17637e-19
-3.17637e-19
1.05879e-19
5.29396e-19
4.23516e-19
1.05879e-19
-4.23516e-19
3.17637e-19
-4.23516e-19
-1.27055e-18
-2.11758e-19
4.23516e-19
9.52912e-19
0
-3.17637e-19
3.17637e-19
-7.41154e-19
0
-1.05879e-19
-4.23516e-19
0
-1.05879e-19
1.37643e-18
4.23516e-19
-4.23516e-19
2.11758e-19
-4.23516e-19
2.11758e-19
4.23516e-19
-5.29396e-19
-2.11758e-19
2.11758e-19
4.23516e-19
-4.23516e-19
-5.29396e-19
2.11758e-19
3.17637e-19
-4.23516e-19
-2.11758e-19
2.11758e-19
0
1.05879e-19
4.23516e-19
-6.35275e-19
-8.47033e-19
5.29396e-19
3.17637e-19
-3.17637e-19
-4.23516e-19
-2.11758e-19
2.11758e-19
4.23516e-19
-2.11758e-19
-1.37643e-18
-1.05879e-18
1.05879e-19
-2.11758e-19
2.11758e-19
0
-6.35275e-19
-3.17637e-19
4.23516e-19
-7.41154e-19
-6.35275e-19
4.23516e-19
)
;

boundaryField
{
    left
    {
        type            calculated;
        value           uniform 0;
    }
    right
    {
        type            calculated;
        value           uniform 0;
    }
    top
    {
        type            calculated;
        value           nonuniform List<scalar> 10(1.05879e-19 -2.11758e-19 2.11758e-19 0 -6.35275e-19 -3.17637e-19 4.23516e-19 -7.41154e-19 -6.35275e-19 4.23516e-19);
    }
    bottom
    {
        type            calculated;
        value           nonuniform List<scalar> 10(-5.29396e-19 -1.27055e-18 0 4.23516e-19 -5.29396e-19 -3.17637e-19 3.17637e-19 0 2.11758e-19 4.23516e-19);
    }
    defaultFaces
    {
        type            empty;
    }
}


// ************************************************************************* //
