/*--------------------------------*- C++ -*----------------------------------*\
| =========                 |                                                 |
| \\      /  F ield         | OpenFOAM: The Open Source CFD Toolbox           |
|  \\    /   O peration     | Version:  2406                                  |
|   \\  /    A nd           | Website:  www.openfoam.com                      |
|    \\/     M anipulation  |                                                 |
\*---------------------------------------------------------------------------*/
FoamFile
{
    version     2.0;
    format      ascii;
    arch        "LSB;label=32;scalar=64";
    class       volScalarField;
    location    "9.9";
    object      gradTy;
}
// * * * * * * * * * * * * * * * * * * * * * * * * * * * * * * * * * * * * * //

dimensions      [0 -1 0 1 0 0 0];

internalField   nonuniform List<scalar> 
100
(
-1.18059e+25
-2.36118e+24
9.44473e+24
1.65283e+25
2.36118e+24
2.36118e+24
4.72237e+24
7.08355e+24
0
0
-3.06954e+25
-9.44473e+24
2.83342e+25
2.5973e+25
0
2.36118e+24
9.44473e+24
1.41671e+25
2.12506e+25
9.44473e+24
0
4.72237e+24
1.41671e+25
4.72237e+24
9.44473e+24
2.12506e+25
1.41671e+25
7.08355e+24
1.88895e+25
1.88895e+25
2.36118e+25
1.41671e+25
-1.18059e+25
-9.44473e+24
-2.36118e+24
9.44473e+24
-2.36118e+24
0
9.44473e+24
-2.36118e+24
-7.08355e+24
-7.08355e+24
-1.41671e+25
-1.41671e+25
-1.41671e+25
-4.72237e+24
-4.72237e+24
4.72237e+24
1.18059e+25
-1.65283e+25
-2.36118e+24
4.72237e+24
2.36118e+24
2.36118e+24
1.88895e+25
2.83342e+25
1.88895e+25
9.44473e+24
-4.72237e+24
-7.08355e+24
2.36118e+25
2.5973e+25
3.06954e+25
1.65283e+25
2.83342e+25
3.54177e+25
2.36118e+25
1.65283e+25
0
-1.41671e+25
2.36118e+25
4.01401e+25
4.01401e+25
2.12506e+25
1.88895e+25
1.65283e+25
2.12506e+25
1.18059e+25
-7.08355e+24
-2.36118e+25
2.5973e+25
1.88895e+25
9.44473e+24
1.41671e+25
9.44473e+24
-2.36118e+24
1.18059e+25
-2.36118e+24
-3.30566e+25
-1.18059e+25
1.41671e+25
-2.36118e+24
-9.44473e+24
2.36118e+24
-2.36118e+24
-7.08355e+24
-2.36118e+24
-4.72237e+24
-2.36118e+25
4.72237e+24
)
;

boundaryField
{
    left
    {
        type            calculated;
        value           nonuniform List<scalar> 10(-1.18059e+25 -3.06954e+25 0 2.36118e+25 -7.08355e+24 -2.36118e+24 2.36118e+25 2.36118e+25 2.5973e+25 1.41671e+25);
    }
    right
    {
        type            calculated;
        value           nonuniform List<scalar> 10(0 9.44473e+24 1.88895e+25 -2.36118e+24 -1.65283e+25 -7.08355e+24 -1.41671e+25 -2.36118e+25 -1.18059e+25 4.72237e+24);
    }
    top
    {
        type            calculated;
        value           uniform 0;
    }
    bottom
    {
        type            calculated;
        value           uniform 0;
    }
    defaultFaces
    {
        type            empty;
    }
}


// ************************************************************************* //
