/*--------------------------------*- C++ -*----------------------------------*\
| =========                 |                                                 |
| \\      /  F ield         | OpenFOAM: The Open Source CFD Toolbox           |
|  \\    /   O peration     | Version:  2406                                  |
|   \\  /    A nd           | Website:  www.openfoam.com                      |
|    \\/     M anipulation  |                                                 |
\*---------------------------------------------------------------------------*/
FoamFile
{
    version     2.0;
    format      ascii;
    arch        "LSB;label=32;scalar=64";
    class       volScalarField;
    location    "4.8";
    object      gradTx;
}
// * * * * * * * * * * * * * * * * * * * * * * * * * * * * * * * * * * * * * //

dimensions      [0 -1 0 1 0 0 0];

internalField   nonuniform List<scalar> 
100
(
-218.75
-562.5
-125
187.5
-687.5
-500
62.5
62.5
187.5
250
-125
-125
375
31.25
-1031.25
-687.5
218.75
156.25
125
156.25
218.75
531.25
531.25
-312.5
-1062.5
-437.5
187.5
156.25
0
31.25
156.25
281.25
375
-250
-843.75
-562.5
-156.25
156.25
375
218.75
31.25
-31.25
156.25
-312.5
-812.5
-343.75
0
250
0
-250
-31.25
-218.75
93.75
-93.75
-343.75
-406.25
-125
437.5
-62.5
-281.25
62.5
-93.75
0
0
-343.75
-281.25
-250
-31.25
-343.75
-343.75
93.75
31.25
-125
-312.5
-406.25
-406.25
-156.25
-31.25
-687.5
-625
218.75
156.25
-250
-500
-500
-312.5
-343.75
-562.5
-1062.5
-656.25
93.75
-62.5
-125
-500
-812.5
-406.25
-312.5
-906.25
-812.5
-281.25
)
;

boundaryField
{
    left
    {
        type            calculated;
        value           uniform 0;
    }
    right
    {
        type            calculated;
        value           uniform 0;
    }
    top
    {
        type            calculated;
        value           nonuniform List<scalar> 10(93.75 -62.5 -125 -500 -812.5 -406.25 -312.5 -906.25 -812.5 -281.25);
    }
    bottom
    {
        type            calculated;
        value           nonuniform List<scalar> 10(-218.75 -562.5 -125 187.5 -687.5 -500 62.5 62.5 187.5 250);
    }
    defaultFaces
    {
        type            empty;
    }
}


// ************************************************************************* //
