/*--------------------------------*- C++ -*----------------------------------*\
| =========                 |                                                 |
| \\      /  F ield         | OpenFOAM: The Open Source CFD Toolbox           |
|  \\    /   O peration     | Version:  2406                                  |
|   \\  /    A nd           | Website:  www.openfoam.com                      |
|    \\/     M anipulation  |                                                 |
\*---------------------------------------------------------------------------*/
FoamFile
{
    version     2.0;
    format      ascii;
    arch        "LSB;label=32;scalar=64";
    class       volScalarField;
    location    "0.95";
    object      gradTy;
}
// * * * * * * * * * * * * * * * * * * * * * * * * * * * * * * * * * * * * * //

dimensions      [0 -1 0 1 0 0 0];

internalField   nonuniform List<scalar> 
100
(
-2.38524e-15
4.33681e-16
4.33681e-16
2.38524e-15
6.50521e-16
0
0
4.33681e-16
-6.50521e-16
-6.50521e-16
-4.11997e-15
-8.67362e-16
2.60209e-15
2.60209e-15
0
6.50521e-16
1.0842e-15
4.33681e-16
1.51788e-15
-2.1684e-16
-4.33681e-16
0
1.0842e-15
-2.1684e-16
4.33681e-16
2.81893e-15
1.51788e-15
-1.30104e-15
1.95156e-15
1.51788e-15
2.38524e-15
8.67362e-16
-1.30104e-15
-1.95156e-15
-1.30104e-15
0
-1.0842e-15
-1.95156e-15
8.67362e-16
-1.73472e-15
-2.38524e-15
-1.95156e-15
-2.60209e-15
-3.03577e-15
-3.25261e-15
-2.38524e-15
-1.95156e-15
4.33681e-16
-4.33681e-16
-3.03577e-15
-1.51788e-15
-6.50521e-16
-8.67362e-16
-2.1684e-16
2.1684e-15
3.68629e-15
2.81893e-15
2.38524e-15
-6.50521e-16
-1.0842e-15
6.50521e-16
2.81893e-15
2.60209e-15
1.0842e-15
3.25261e-15
3.90313e-15
3.25261e-15
2.38524e-15
4.33681e-16
-1.0842e-15
1.95156e-15
3.25261e-15
3.90313e-15
1.0842e-15
1.0842e-15
2.1684e-15
2.81893e-15
1.73472e-15
-1.0842e-15
-3.68629e-15
3.46945e-15
1.0842e-15
1.30104e-15
1.30104e-15
6.50521e-16
-8.67362e-16
1.51788e-15
-1.95156e-15
-4.77049e-15
-2.60209e-15
1.95156e-15
-4.33681e-16
-1.0842e-15
6.50521e-16
2.1684e-16
-1.51788e-15
-8.67362e-16
-1.73472e-15
-2.81893e-15
4.33681e-16
)
;

boundaryField
{
    left
    {
        type            calculated;
        value           nonuniform List<scalar> 10(-2.38524e-15 -4.11997e-15 -4.33681e-16 2.38524e-15 -2.38524e-15 -1.51788e-15 6.50521e-16 1.95156e-15 3.46945e-15 1.95156e-15);
    }
    right
    {
        type            calculated;
        value           nonuniform List<scalar> 10(-6.50521e-16 -2.1684e-16 1.51788e-15 -1.73472e-15 -3.03577e-15 -1.0842e-15 -1.0842e-15 -3.68629e-15 -2.60209e-15 4.33681e-16);
    }
    top
    {
        type            calculated;
        value           uniform 0;
    }
    bottom
    {
        type            calculated;
        value           uniform 0;
    }
    defaultFaces
    {
        type            empty;
    }
}


// ************************************************************************* //
