/*--------------------------------*- C++ -*----------------------------------*\
| =========                 |                                                 |
| \\      /  F ield         | OpenFOAM: The Open Source CFD Toolbox           |
|  \\    /   O peration     | Version:  2406                                  |
|   \\  /    A nd           | Website:  www.openfoam.com                      |
|    \\/     M anipulation  |                                                 |
\*---------------------------------------------------------------------------*/
FoamFile
{
    version     2.0;
    format      ascii;
    arch        "LSB;label=32;scalar=64";
    class       volScalarField;
    location    "6.8";
    object      gradTy;
}
// * * * * * * * * * * * * * * * * * * * * * * * * * * * * * * * * * * * * * //

dimensions      [0 -1 0 1 0 0 0];

internalField   nonuniform List<scalar> 
100
(
-2.01327e+11
-6.71089e+10
1.00663e+11
2.34881e+11
6.71089e+10
-6.71089e+10
0
0
0
-6.71089e+10
-5.36871e+11
-1.34218e+11
4.02653e+11
4.36208e+11
6.71089e+10
1.00663e+11
1.67772e+11
6.71089e+10
2.01327e+11
0
0
1.67772e+11
3.0199e+11
1.67772e+11
1.67772e+11
3.35544e+11
2.01327e+11
6.71089e+10
2.68435e+11
6.71089e+10
3.69099e+11
2.68435e+11
-6.71089e+10
-1.67772e+11
-1.00663e+11
1.67772e+11
-6.71089e+10
-6.71089e+10
1.34218e+11
-3.35544e+10
0
-1.00663e+11
-3.0199e+11
-2.68435e+11
-3.69099e+11
-1.34218e+11
-1.67772e+11
6.71089e+10
3.35544e+10
-2.01327e+11
3.35544e+10
1.34218e+11
0
0
2.68435e+11
3.69099e+11
3.0199e+11
3.35544e+10
-1.34218e+11
-2.68435e+11
4.69762e+11
5.36871e+11
6.0398e+11
3.0199e+11
4.69762e+11
3.69099e+11
3.69099e+11
2.68435e+11
-3.35544e+10
-1.34218e+11
5.70425e+11
6.0398e+11
6.71089e+11
4.36208e+11
4.02653e+11
3.35544e+11
2.68435e+11
2.01327e+11
-1.00663e+11
-3.69099e+11
3.35544e+11
2.68435e+11
2.34881e+11
3.35544e+11
6.71089e+10
-6.71089e+10
1.00663e+11
-1.34218e+11
-6.37534e+11
-3.0199e+11
1.67772e+11
0
-6.71089e+10
6.71089e+10
-3.35544e+10
-2.01327e+11
-1.00663e+11
-2.01327e+11
-4.36208e+11
-6.71089e+10
)
;

boundaryField
{
    left
    {
        type            calculated;
        value           nonuniform List<scalar> 10(-2.01327e+11 -5.36871e+11 0 3.69099e+11 0 3.35544e+10 4.69762e+11 5.70425e+11 3.35544e+11 1.67772e+11);
    }
    right
    {
        type            calculated;
        value           nonuniform List<scalar> 10(-6.71089e+10 0 6.71089e+10 -3.35544e+10 -2.01327e+11 -2.68435e+11 -1.34218e+11 -3.69099e+11 -3.0199e+11 -6.71089e+10);
    }
    top
    {
        type            calculated;
        value           uniform 0;
    }
    bottom
    {
        type            calculated;
        value           uniform 0;
    }
    defaultFaces
    {
        type            empty;
    }
}


// ************************************************************************* //
