/*--------------------------------*- C++ -*----------------------------------*\
| =========                 |                                                 |
| \\      /  F ield         | OpenFOAM: The Open Source CFD Toolbox           |
|  \\    /   O peration     | Version:  2406                                  |
|   \\  /    A nd           | Website:  www.openfoam.com                      |
|    \\/     M anipulation  |                                                 |
\*---------------------------------------------------------------------------*/
FoamFile
{
    version     2.0;
    format      ascii;
    arch        "LSB;label=32;scalar=64";
    class       volScalarField;
    location    "3.45";
    object      gradTy;
}
// * * * * * * * * * * * * * * * * * * * * * * * * * * * * * * * * * * * * * //

dimensions      [0 -1 0 1 0 0 0];

internalField   nonuniform List<scalar> 
100
(
-0.000357628
-0.000178814
0.000149012
0.000149012
-2.98023e-05
-2.98023e-05
2.98023e-05
2.98023e-05
-8.9407e-05
-2.98023e-05
-0.000715256
-0.000149012
0.000476837
0.000447035
0
-8.9407e-05
0.000238419
0.000149012
0.000149012
0
-8.9407e-05
0.000119209
0.000208616
0.000149012
8.9407e-05
0.000298023
5.96046e-05
-0.000149012
0.000268221
0.000268221
0.000417233
0.000119209
-0.000149012
-0.000417233
-0.000238419
0
-0.000178814
-0.000238419
5.96046e-05
-0.000208616
-5.96046e-05
-0.000119209
-0.00038743
-0.000298023
-0.000447035
-5.96046e-05
-0.000178814
-0.000119209
2.98023e-05
-0.000357628
-5.96046e-05
2.98023e-05
-8.9407e-05
8.9407e-05
0.000298023
0.000327826
0.000149012
8.9407e-05
0
-8.9407e-05
0.000476837
0.000596046
0.000625849
0.000327826
0.000745058
0.000476837
0.00038743
0.000327826
0
-0.000268221
0.000536442
0.000745058
0.000804663
0.000476837
0.000476837
0.000536442
0.000357628
0.000268221
-0.000238419
-0.000327826
0.000417233
0.000327826
0.000327826
0.000298023
0.000149012
-5.96046e-05
0.000149012
-0.000149012
-0.000596046
-0.000327826
0.000208616
-5.96046e-05
-5.96046e-05
0.000119209
-2.98023e-05
-0.000149012
-5.96046e-05
-0.000208616
-0.000357628
-5.96046e-05
)
;

boundaryField
{
    left
    {
        type            calculated;
        value           nonuniform List<scalar> 10(-0.000357628 -0.000715256 -8.9407e-05 0.000417233 -5.96046e-05 -5.96046e-05 0.000476837 0.000536442 0.000417233 0.000208616);
    }
    right
    {
        type            calculated;
        value           nonuniform List<scalar> 10(-2.98023e-05 0 0.000268221 -0.000208616 -0.000357628 -8.9407e-05 -0.000268221 -0.000327826 -0.000327826 -5.96046e-05);
    }
    top
    {
        type            calculated;
        value           uniform 0;
    }
    bottom
    {
        type            calculated;
        value           uniform 0;
    }
    defaultFaces
    {
        type            empty;
    }
}


// ************************************************************************* //
