/*--------------------------------*- C++ -*----------------------------------*\
| =========                 |                                                 |
| \\      /  F ield         | OpenFOAM: The Open Source CFD Toolbox           |
|  \\    /   O peration     | Version:  2406                                  |
|   \\  /    A nd           | Website:  www.openfoam.com                      |
|    \\/     M anipulation  |                                                 |
\*---------------------------------------------------------------------------*/
FoamFile
{
    version     2.0;
    format      ascii;
    arch        "LSB;label=32;scalar=64";
    class       volScalarField;
    location    "2.65";
    object      gradTy;
}
// * * * * * * * * * * * * * * * * * * * * * * * * * * * * * * * * * * * * * //

dimensions      [0 -1 0 1 0 0 0];

internalField   nonuniform List<scalar> 
100
(
-8.00355e-08
-1.45519e-08
2.91038e-08
5.09317e-08
7.27596e-09
-1.45519e-08
3.63798e-08
5.82077e-08
2.91038e-08
-1.45519e-08
-1.60071e-07
-4.36557e-08
1.09139e-07
1.09139e-07
2.18279e-08
2.18279e-08
8.73115e-08
7.27596e-08
1.30967e-07
4.36557e-08
-7.27596e-09
-7.27596e-09
6.54836e-08
4.36557e-08
3.63798e-08
1.01863e-07
1.45519e-08
-3.63798e-08
1.01863e-07
8.73115e-08
6.54836e-08
5.09317e-08
-5.09317e-08
-8.00355e-08
-6.54836e-08
7.27596e-09
-6.54836e-08
-3.63798e-08
-2.91038e-08
-5.82077e-08
-2.91038e-08
-1.45519e-08
-9.45874e-08
-1.23691e-07
-1.09139e-07
-5.09317e-08
-4.36557e-08
7.27596e-09
7.27596e-09
-1.09139e-07
0
3.63798e-08
7.27596e-09
-2.91038e-08
7.27596e-08
8.00355e-08
5.82077e-08
2.91038e-08
-1.45519e-08
-4.36557e-08
1.45519e-07
1.60071e-07
1.60071e-07
5.82077e-08
1.30967e-07
1.16415e-07
1.23691e-07
9.45874e-08
2.91038e-08
-5.09317e-08
1.60071e-07
1.89175e-07
1.96451e-07
1.01863e-07
7.27596e-08
8.73115e-08
1.09139e-07
8.73115e-08
-6.54836e-08
-1.23691e-07
1.01863e-07
8.00355e-08
8.00355e-08
9.45874e-08
7.27596e-09
-2.18279e-08
3.63798e-08
-8.00355e-08
-2.18279e-07
-1.01863e-07
5.09317e-08
-7.27596e-09
0
2.18279e-08
-1.45519e-08
-5.82077e-08
-1.45519e-08
-8.00355e-08
-1.01863e-07
-2.91038e-08
)
;

boundaryField
{
    left
    {
        type            calculated;
        value           nonuniform List<scalar> 10(-8.00355e-08 -1.60071e-07 -7.27596e-09 6.54836e-08 -2.91038e-08 0 1.45519e-07 1.60071e-07 1.01863e-07 5.09317e-08);
    }
    right
    {
        type            calculated;
        value           nonuniform List<scalar> 10(-1.45519e-08 4.36557e-08 8.73115e-08 -5.82077e-08 -1.09139e-07 -4.36557e-08 -5.09317e-08 -1.23691e-07 -1.01863e-07 -2.91038e-08);
    }
    top
    {
        type            calculated;
        value           uniform 0;
    }
    bottom
    {
        type            calculated;
        value           uniform 0;
    }
    defaultFaces
    {
        type            empty;
    }
}


// ************************************************************************* //
