/*--------------------------------*- C++ -*----------------------------------*\
| =========                 |                                                 |
| \\      /  F ield         | OpenFOAM: The Open Source CFD Toolbox           |
|  \\    /   O peration     | Version:  2406                                  |
|   \\  /    A nd           | Website:  www.openfoam.com                      |
|    \\/     M anipulation  |                                                 |
\*---------------------------------------------------------------------------*/
FoamFile
{
    version     2.0;
    format      ascii;
    arch        "LSB;label=32;scalar=64";
    class       volScalarField;
    location    "8.15";
    object      gradTx;
}
// * * * * * * * * * * * * * * * * * * * * * * * * * * * * * * * * * * * * * //

dimensions      [0 -1 0 1 0 0 0];

internalField   nonuniform List<scalar> 
100
(
-2.81475e+17
-5.27766e+17
-1.40737e+17
1.05553e+17
-4.22212e+17
-3.51844e+17
3.51844e+16
-3.51844e+16
1.40737e+17
2.11106e+17
-3.51844e+16
-1.75922e+17
1.40737e+17
7.03687e+16
-7.74056e+17
-4.22212e+17
1.40737e+17
-1.05553e+17
3.51844e+16
2.46291e+17
2.11106e+17
4.22212e+17
3.87028e+17
-3.16659e+17
-8.79609e+17
-3.87028e+17
7.03687e+16
1.05553e+17
3.51844e+16
3.51844e+16
3.51844e+16
1.40737e+17
2.46291e+17
-2.46291e+17
-5.6295e+17
-4.57397e+17
-1.75922e+17
7.03687e+16
2.46291e+17
1.05553e+17
-1.05553e+17
-1.75922e+17
1.05553e+17
-2.81475e+17
-6.68503e+17
-3.16659e+17
0
2.81475e+17
0
-2.46291e+17
7.03687e+16
-2.11106e+17
-7.03687e+16
-1.05553e+17
-3.16659e+17
-2.46291e+17
-7.03687e+16
3.16659e+17
-1.40737e+17
-2.81475e+17
1.40737e+17
-3.51844e+16
0
7.03687e+16
-1.75922e+17
-2.11106e+17
-2.81475e+17
-2.11106e+17
-2.46291e+17
-2.46291e+17
1.75922e+17
1.05553e+17
-2.46291e+17
-1.40737e+17
-1.05553e+17
-3.87028e+17
-3.16659e+17
-1.05553e+17
-4.92581e+17
-4.22212e+17
2.11106e+17
1.75922e+17
-1.75922e+17
-3.51844e+17
-2.81475e+17
-2.81475e+17
-2.46291e+17
-5.6295e+17
-8.79609e+17
-5.6295e+17
3.51844e+16
-1.05553e+17
-3.51844e+16
-3.16659e+17
-5.27766e+17
-3.51844e+17
-2.46291e+17
-8.09241e+17
-7.03687e+17
-1.75922e+17
)
;

boundaryField
{
    left
    {
        type            calculated;
        value           uniform 0;
    }
    right
    {
        type            calculated;
        value           uniform 0;
    }
    top
    {
        type            calculated;
        value           nonuniform List<scalar> 10(3.51844e+16 -1.05553e+17 -3.51844e+16 -3.16659e+17 -5.27766e+17 -3.51844e+17 -2.46291e+17 -8.09241e+17 -7.03687e+17 -1.75922e+17);
    }
    bottom
    {
        type            calculated;
        value           nonuniform List<scalar> 10(-2.81475e+17 -5.27766e+17 -1.40737e+17 1.05553e+17 -4.22212e+17 -3.51844e+17 3.51844e+16 -3.51844e+16 1.40737e+17 2.11106e+17);
    }
    defaultFaces
    {
        type            empty;
    }
}


// ************************************************************************* //
