/*--------------------------------*- C++ -*----------------------------------*\
| =========                 |                                                 |
| \\      /  F ield         | OpenFOAM: The Open Source CFD Toolbox           |
|  \\    /   O peration     | Version:  2406                                  |
|   \\  /    A nd           | Website:  www.openfoam.com                      |
|    \\/     M anipulation  |                                                 |
\*---------------------------------------------------------------------------*/
FoamFile
{
    version     2.0;
    format      ascii;
    arch        "LSB;label=32;scalar=64";
    class       volScalarField;
    location    "2.95";
    object      gradTx;
}
// * * * * * * * * * * * * * * * * * * * * * * * * * * * * * * * * * * * * * //

dimensions      [0 -1 0 1 0 0 0];

internalField   nonuniform List<scalar> 
100
(
-1.62981e-06
-3.0268e-06
9.31323e-07
1.16415e-06
-3.49246e-06
-3.49246e-06
0
4.65661e-07
9.31323e-07
1.16415e-06
0
-4.65661e-07
2.32831e-06
6.98492e-07
-5.3551e-06
-3.49246e-06
1.39698e-06
0
6.98492e-07
1.39698e-06
6.98492e-07
2.56114e-06
3.95812e-06
-1.39698e-06
-5.82077e-06
-2.09548e-06
9.31323e-07
9.31323e-07
2.32831e-07
0
4.65661e-07
1.39698e-06
1.86265e-06
-1.39698e-06
-3.25963e-06
-2.79397e-06
-2.09548e-06
6.98492e-07
2.79397e-06
1.16415e-06
0
-4.65661e-07
9.31323e-07
-1.62981e-06
-3.49246e-06
-1.62981e-06
-6.98492e-07
1.86265e-06
0
-1.16415e-06
2.32831e-07
-2.32831e-07
6.98492e-07
-6.98492e-07
-1.86265e-06
-1.86265e-06
-9.31323e-07
2.56114e-06
-2.32831e-07
-1.86265e-06
9.31323e-07
4.65661e-07
9.31323e-07
2.32831e-07
-1.39698e-06
-1.62981e-06
-1.62981e-06
-6.98492e-07
-1.39698e-06
-1.62981e-06
9.31323e-07
1.16415e-06
-9.31323e-07
-1.39698e-06
-9.31323e-07
-2.09548e-06
-1.39698e-06
-6.98492e-07
-3.0268e-06
-2.56114e-06
1.62981e-06
1.39698e-06
-9.31323e-07
-2.32831e-06
-1.86265e-06
-1.62981e-06
-2.09548e-06
-3.72529e-06
-4.65661e-06
-3.0268e-06
4.65661e-07
0
-2.32831e-07
-1.86265e-06
-3.25963e-06
-1.62981e-06
-2.09548e-06
-6.0536e-06
-4.42378e-06
-6.98492e-07
)
;

boundaryField
{
    left
    {
        type            calculated;
        value           uniform 0;
    }
    right
    {
        type            calculated;
        value           uniform 0;
    }
    top
    {
        type            calculated;
        value           nonuniform List<scalar> 10(4.65661e-07 0 -2.32831e-07 -1.86265e-06 -3.25963e-06 -1.62981e-06 -2.09548e-06 -6.0536e-06 -4.42378e-06 -6.98492e-07);
    }
    bottom
    {
        type            calculated;
        value           nonuniform List<scalar> 10(-1.62981e-06 -3.0268e-06 9.31323e-07 1.16415e-06 -3.49246e-06 -3.49246e-06 0 4.65661e-07 9.31323e-07 1.16415e-06);
    }
    defaultFaces
    {
        type            empty;
    }
}


// ************************************************************************* //
