/*--------------------------------*- C++ -*----------------------------------*\
| =========                 |                                                 |
| \\      /  F ield         | OpenFOAM: The Open Source CFD Toolbox           |
|  \\    /   O peration     | Version:  2406                                  |
|   \\  /    A nd           | Website:  www.openfoam.com                      |
|    \\/     M anipulation  |                                                 |
\*---------------------------------------------------------------------------*/
FoamFile
{
    version     2.0;
    format      ascii;
    arch        "LSB;label=32;scalar=64";
    class       volVectorField;
    location    "9.1";
    object      flux;
}
// * * * * * * * * * * * * * * * * * * * * * * * * * * * * * * * * * * * * * //

dimensions      [0 1 -1 1 0 0 0];

internalField   nonuniform List<vector> 
100
(
(-1.61409e+20 -2.07526e+20 0)
(-4.15052e+20 -6.91753e+19 0)
(-9.22337e+19 2.30584e+19 0)
(2.30584e+19 1.38351e+20 0)
(-3.45876e+20 4.61169e+19 0)
(-3.22818e+20 -2.30584e+19 0)
(4.61169e+19 2.30584e+19 0)
(4.61169e+19 0 0)
(6.91753e+19 0 0)
(9.22337e+19 0 0)
(-4.61169e+19 -3.68935e+20 0)
(-1.61409e+20 -1.38351e+20 0)
(1.61409e+20 2.53643e+20 0)
(4.61169e+19 3.45876e+20 0)
(-5.53402e+20 1.15292e+20 0)
(-3.45876e+20 4.61169e+19 0)
(9.22337e+19 9.22337e+19 0)
(2.30584e+19 9.22337e+19 0)
(4.61169e+19 1.84467e+20 0)
(9.22337e+19 9.22337e+19 0)
(6.91753e+19 0 0)
(2.30584e+20 6.91753e+19 0)
(3.22818e+20 2.53643e+20 0)
(-9.22337e+19 1.15292e+20 0)
(-5.99519e+20 9.22337e+19 0)
(-3.22818e+20 2.9976e+20 0)
(6.91753e+19 1.15292e+20 0)
(1.15292e+20 2.30584e+19 0)
(6.91753e+19 1.84467e+20 0)
(2.30584e+19 2.07526e+20 0)
(2.30584e+19 3.22818e+20 0)
(6.91753e+19 2.30584e+20 0)
(1.61409e+20 -4.61169e+19 0)
(-4.61169e+19 -1.15292e+20 0)
(-3.91993e+20 -9.22337e+19 0)
(-3.22818e+20 9.22337e+19 0)
(-1.84467e+20 0 0)
(6.91753e+19 -2.30584e+19 0)
(2.07526e+20 6.91753e+19 0)
(1.38351e+20 -6.91753e+19 0)
(-2.30584e+19 0 0)
(-1.38351e+20 -2.30584e+19 0)
(4.61169e+19 -2.07526e+20 0)
(-1.84467e+20 -1.84467e+20 0)
(-4.15052e+20 -2.30584e+20 0)
(-2.30584e+20 -6.91753e+19 0)
(-2.30584e+19 -2.30584e+19 0)
(2.07526e+20 2.30584e+19 0)
(2.30584e+19 9.22337e+19 0)
(-1.15292e+20 -2.07526e+20 0)
(0 0 0)
(-1.61409e+20 6.91753e+19 0)
(0 4.61169e+19 0)
(-6.91753e+19 9.22337e+19 0)
(-2.07526e+20 2.30584e+20 0)
(-2.07526e+20 3.22818e+20 0)
(-1.15292e+20 2.30584e+20 0)
(2.30584e+20 6.91753e+19 0)
(-2.30584e+19 -4.61169e+19 0)
(-1.84467e+20 -1.38351e+20 0)
(4.61169e+19 2.30584e+20 0)
(-4.61169e+19 3.22818e+20 0)
(2.30584e+19 4.15052e+20 0)
(0 2.30584e+20 0)
(-2.07526e+20 3.68935e+20 0)
(-2.07526e+20 2.9976e+20 0)
(-2.07526e+20 2.9976e+20 0)
(-1.15292e+20 2.76701e+20 0)
(-1.84467e+20 2.30584e+19 0)
(-2.07526e+20 -9.22337e+19 0)
(4.61169e+19 2.30584e+20 0)
(0 3.45876e+20 0)
(-6.91753e+19 4.15052e+20 0)
(-9.22337e+19 1.38351e+20 0)
(-1.61409e+20 2.07526e+20 0)
(-2.30584e+20 2.30584e+20 0)
(-2.07526e+20 1.61409e+20 0)
(-9.22337e+19 1.84467e+20 0)
(-3.45876e+20 -9.22337e+19 0)
(-2.9976e+20 -2.53643e+20 0)
(1.61409e+20 2.53643e+20 0)
(1.38351e+20 1.61409e+20 0)
(-1.61409e+20 1.38351e+20 0)
(-2.07526e+20 2.07526e+20 0)
(-1.61409e+20 6.91753e+19 0)
(-2.07526e+20 -2.30584e+19 0)
(-2.53643e+20 6.91753e+19 0)
(-3.45876e+20 -1.15292e+20 0)
(-5.99519e+20 -4.15052e+20 0)
(-3.68935e+20 -2.53643e+20 0)
(2.30584e+19 1.38351e+20 0)
(-9.22337e+19 0 0)
(-4.61169e+19 -6.91753e+19 0)
(-1.61409e+20 1.15292e+20 0)
(-3.22818e+20 4.61169e+19 0)
(-2.9976e+20 -4.61169e+19 0)
(-2.76701e+20 -6.91753e+19 0)
(-5.76461e+20 -1.15292e+20 0)
(-4.84227e+20 -2.30584e+20 0)
(-1.61409e+20 -2.30584e+19 0)
)
;

boundaryField
{
    left
    {
        type            calculated;
        value           nonuniform List<vector> 10((0 -2.07526e+20 0) (0 -3.68935e+20 0) (0 0 0) (0 3.22818e+20 0) (0 0 0) (0 0 0) (0 2.30584e+20 0) (0 2.30584e+20 0) (0 2.53643e+20 0) (0 1.38351e+20 0));
    }
    right
    {
        type            calculated;
        value           nonuniform List<vector> 10((0 0 0) (0 9.22337e+19 0) (0 2.07526e+20 0) (0 -6.91753e+19 0) (0 -2.07526e+20 0) (0 -1.38351e+20 0) (0 -9.22337e+19 0) (0 -2.53643e+20 0) (0 -2.53643e+20 0) (0 -2.30584e+19 0));
    }
    top
    {
        type            calculated;
        value           nonuniform List<vector> 10((2.30584e+19 0 0) (-9.22337e+19 0 0) (-4.61169e+19 0 0) (-1.61409e+20 0 0) (-3.22818e+20 0 0) (-2.9976e+20 0 0) (-2.76701e+20 0 0) (-5.76461e+20 0 0) (-4.84227e+20 0 0) (-1.61409e+20 0 0));
    }
    bottom
    {
        type            calculated;
        value           nonuniform List<vector> 10((-1.61409e+20 0 0) (-4.15052e+20 0 0) (-9.22337e+19 0 0) (2.30584e+19 0 0) (-3.45876e+20 0 0) (-3.22818e+20 0 0) (4.61169e+19 0 0) (4.61169e+19 0 0) (6.91753e+19 0 0) (9.22337e+19 0 0));
    }
    defaultFaces
    {
        type            empty;
    }
}


// ************************************************************************* //
