/*--------------------------------*- C++ -*----------------------------------*\
| =========                 |                                                 |
| \\      /  F ield         | OpenFOAM: The Open Source CFD Toolbox           |
|  \\    /   O peration     | Version:  2406                                  |
|   \\  /    A nd           | Website:  www.openfoam.com                      |
|    \\/     M anipulation  |                                                 |
\*---------------------------------------------------------------------------*/
FoamFile
{
    version     2.0;
    format      ascii;
    arch        "LSB;label=32;scalar=64";
    class       volScalarField;
    location    "2.35";
    object      gradTy;
}
// * * * * * * * * * * * * * * * * * * * * * * * * * * * * * * * * * * * * * //

dimensions      [0 -1 0 1 0 0 0];

internalField   nonuniform List<scalar> 
100
(
-2.72848e-09
-1.81899e-09
9.09495e-10
3.18323e-09
1.36424e-09
9.09495e-10
4.54747e-10
0
-9.09495e-10
9.09495e-10
-8.6402e-09
-1.81899e-09
5.91172e-09
6.36646e-09
9.09495e-10
1.81899e-09
2.27374e-09
1.36424e-09
3.18323e-09
9.09495e-10
-1.81899e-09
1.36424e-09
3.63798e-09
3.18323e-09
2.72848e-09
3.63798e-09
2.27374e-09
0
3.18323e-09
3.18323e-09
4.54747e-09
2.27374e-09
-2.27374e-09
-4.09273e-09
-3.18323e-09
1.36424e-09
-2.27374e-09
-1.81899e-09
1.36424e-09
-2.27374e-09
-1.36424e-09
-2.27374e-09
-5.45697e-09
-5.91172e-09
-6.36646e-09
-1.81899e-09
-3.63798e-09
0
9.09495e-10
-5.00222e-09
-9.09495e-10
0
-1.81899e-09
-1.36424e-09
2.27374e-09
3.63798e-09
4.09273e-09
3.18323e-09
-4.54747e-10
-4.54747e-10
5.00222e-09
7.27596e-09
9.54969e-09
4.09273e-09
6.36646e-09
5.00222e-09
7.27596e-09
3.63798e-09
4.54747e-10
-2.72848e-09
7.7307e-09
8.18545e-09
9.54969e-09
5.45697e-09
4.54747e-09
4.09273e-09
3.18323e-09
2.72848e-09
-2.27374e-09
-5.45697e-09
4.54747e-09
2.27374e-09
1.81899e-09
2.72848e-09
1.36424e-09
-4.54747e-10
1.81899e-09
-2.72848e-09
-8.6402e-09
-4.09273e-09
1.81899e-09
-4.54747e-10
-9.09495e-10
1.36424e-09
-4.54747e-10
-1.81899e-09
-4.54747e-10
-2.27374e-09
-5.91172e-09
-1.81899e-09
)
;

boundaryField
{
    left
    {
        type            calculated;
        value           nonuniform List<scalar> 10(-2.72848e-09 -8.6402e-09 -1.81899e-09 4.54747e-09 -1.36424e-09 -9.09495e-10 5.00222e-09 7.7307e-09 4.54747e-09 1.81899e-09);
    }
    right
    {
        type            calculated;
        value           nonuniform List<scalar> 10(9.09495e-10 9.09495e-10 3.18323e-09 -2.27374e-09 -5.00222e-09 -4.54747e-10 -2.72848e-09 -5.45697e-09 -4.09273e-09 -1.81899e-09);
    }
    top
    {
        type            calculated;
        value           uniform 0;
    }
    bottom
    {
        type            calculated;
        value           uniform 0;
    }
    defaultFaces
    {
        type            empty;
    }
}


// ************************************************************************* //
