/*--------------------------------*- C++ -*----------------------------------*\
| =========                 |                                                 |
| \\      /  F ield         | OpenFOAM: The Open Source CFD Toolbox           |
|  \\    /   O peration     | Version:  2406                                  |
|   \\  /    A nd           | Website:  www.openfoam.com                      |
|    \\/     M anipulation  |                                                 |
\*---------------------------------------------------------------------------*/
FoamFile
{
    version     2.0;
    format      ascii;
    arch        "LSB;label=32;scalar=64";
    class       volScalarField;
    location    "6.1";
    object      gradTx;
}
// * * * * * * * * * * * * * * * * * * * * * * * * * * * * * * * * * * * * * //

dimensions      [0 -1 0 1 0 0 0];

internalField   nonuniform List<scalar> 
100
(
-1.6384e+08
-3.93216e+08
3.2768e+07
6.5536e+07
-5.57056e+08
-2.94912e+08
1.96608e+08
2.29376e+08
2.29376e+08
1.31072e+08
0
-1.31072e+08
1.96608e+08
9.8304e+07
-6.5536e+08
-3.2768e+08
2.62144e+08
1.6384e+08
1.6384e+08
1.31072e+08
1.31072e+08
2.62144e+08
4.25984e+08
-9.8304e+07
-6.5536e+08
-1.6384e+08
2.29376e+08
6.5536e+07
0
0
0
9.8304e+07
2.62144e+08
-3.2768e+07
-3.93216e+08
-1.96608e+08
0
9.8304e+07
2.29376e+08
1.31072e+08
-3.2768e+07
3.2768e+07
1.6384e+08
-6.5536e+07
-3.2768e+08
-1.6384e+08
-3.2768e+07
1.31072e+08
0
-1.31072e+08
6.5536e+07
-3.2768e+07
6.5536e+07
-6.5536e+07
-9.8304e+07
-1.6384e+08
-1.31072e+08
2.94912e+08
6.5536e+07
-1.31072e+08
6.5536e+07
-6.5536e+07
-9.8304e+07
0
-6.5536e+07
-9.8304e+07
-1.31072e+08
0
-1.31072e+08
-1.96608e+08
6.5536e+07
0
-2.29376e+08
-1.96608e+08
-6.5536e+07
-1.31072e+08
-2.29376e+08
-6.5536e+07
-3.60448e+08
-3.93216e+08
2.29376e+08
1.96608e+08
-1.31072e+08
-3.60448e+08
-2.62144e+08
-1.6384e+08
-2.29376e+08
-3.93216e+08
-5.89824e+08
-3.93216e+08
0
-3.2768e+07
-6.5536e+07
-2.94912e+08
-5.24288e+08
-2.29376e+08
-1.6384e+08
-5.89824e+08
-4.9152e+08
-1.31072e+08
)
;

boundaryField
{
    left
    {
        type            calculated;
        value           uniform 0;
    }
    right
    {
        type            calculated;
        value           uniform 0;
    }
    top
    {
        type            calculated;
        value           nonuniform List<scalar> 10(0 -3.2768e+07 -6.5536e+07 -2.94912e+08 -5.24288e+08 -2.29376e+08 -1.6384e+08 -5.89824e+08 -4.9152e+08 -1.31072e+08);
    }
    bottom
    {
        type            calculated;
        value           nonuniform List<scalar> 10(-1.6384e+08 -3.93216e+08 3.2768e+07 6.5536e+07 -5.57056e+08 -2.94912e+08 1.96608e+08 2.29376e+08 2.29376e+08 1.31072e+08);
    }
    defaultFaces
    {
        type            empty;
    }
}


// ************************************************************************* //
