/*--------------------------------*- C++ -*----------------------------------*\
| =========                 |                                                 |
| \\      /  F ield         | OpenFOAM: The Open Source CFD Toolbox           |
|  \\    /   O peration     | Version:  2406                                  |
|   \\  /    A nd           | Website:  www.openfoam.com                      |
|    \\/     M anipulation  |                                                 |
\*---------------------------------------------------------------------------*/
FoamFile
{
    version     2.0;
    format      ascii;
    arch        "LSB;label=32;scalar=64";
    class       volScalarField;
    location    "8.85";
    object      gradTx;
}
// * * * * * * * * * * * * * * * * * * * * * * * * * * * * * * * * * * * * * //

dimensions      [0 -1 0 1 0 0 0];

internalField   nonuniform List<scalar> 
100
(
-3.24259e+20
-7.56605e+20
-2.16173e+20
3.60288e+19
-7.56605e+20
-4.32346e+20
7.20576e+19
7.20576e+19
1.08086e+20
1.44115e+20
-1.08086e+20
-2.16173e+20
3.24259e+20
3.60288e+19
-1.11689e+21
-5.76461e+20
3.24259e+20
3.60288e+19
7.20576e+19
2.16173e+20
2.16173e+20
5.04403e+20
6.84547e+20
-3.24259e+20
-1.08086e+21
-4.32346e+20
1.08086e+20
1.44115e+20
7.20576e+19
0
0
2.16173e+20
4.32346e+20
-1.80144e+20
-7.56605e+20
-4.68374e+20
-1.44115e+20
2.16173e+20
2.52202e+20
7.20576e+19
7.20576e+19
-1.08086e+20
2.52202e+20
-2.52202e+20
-6.84547e+20
-4.32346e+20
7.20576e+19
3.96317e+20
-1.44115e+20
-3.24259e+20
7.20576e+19
-7.20576e+19
7.20576e+19
-1.44115e+20
-3.96317e+20
-3.96317e+20
-1.80144e+20
5.76461e+20
3.60288e+19
-2.8823e+20
1.08086e+20
0
3.60288e+19
-3.60288e+19
-2.8823e+20
-2.8823e+20
-2.52202e+20
-1.08086e+20
-2.8823e+20
-3.24259e+20
1.44115e+20
7.20576e+19
-1.80144e+20
-3.96317e+20
-4.32346e+20
-3.60288e+20
-2.8823e+20
-3.60288e+19
-6.48518e+20
-6.48518e+20
3.60288e+20
2.8823e+20
-3.24259e+20
-6.1249e+20
-5.40432e+20
-2.8823e+20
-3.60288e+20
-7.20576e+20
-1.11689e+21
-6.48518e+20
1.08086e+20
-1.08086e+20
-1.80144e+20
-4.32346e+20
-7.56605e+20
-4.68374e+20
-5.04403e+20
-1.15292e+21
-9.0072e+20
-2.8823e+20
)
;

boundaryField
{
    left
    {
        type            calculated;
        value           uniform 0;
    }
    right
    {
        type            calculated;
        value           uniform 0;
    }
    top
    {
        type            calculated;
        value           nonuniform List<scalar> 10(1.08086e+20 -1.08086e+20 -1.80144e+20 -4.32346e+20 -7.56605e+20 -4.68374e+20 -5.04403e+20 -1.15292e+21 -9.0072e+20 -2.8823e+20);
    }
    bottom
    {
        type            calculated;
        value           nonuniform List<scalar> 10(-3.24259e+20 -7.56605e+20 -2.16173e+20 3.60288e+19 -7.56605e+20 -4.32346e+20 7.20576e+19 7.20576e+19 1.08086e+20 1.44115e+20);
    }
    defaultFaces
    {
        type            empty;
    }
}


// ************************************************************************* //
