/*--------------------------------*- C++ -*----------------------------------*\
| =========                 |                                                 |
| \\      /  F ield         | OpenFOAM: The Open Source CFD Toolbox           |
|  \\    /   O peration     | Version:  2406                                  |
|   \\  /    A nd           | Website:  www.openfoam.com                      |
|    \\/     M anipulation  |                                                 |
\*---------------------------------------------------------------------------*/
FoamFile
{
    version     2.0;
    format      ascii;
    arch        "LSB;label=32;scalar=64";
    class       volScalarField;
    location    "3.95";
    object      gradTy;
}
// * * * * * * * * * * * * * * * * * * * * * * * * * * * * * * * * * * * * * //

dimensions      [0 -1 0 1 0 0 0];

internalField   nonuniform List<scalar> 
100
(
-0.0457764
-0.0228882
0.0305176
0.038147
0.0228882
-0.00762939
-0.00762939
0.0152588
0.00762939
0
-0.106812
-0.0152588
0.0839233
0.0839233
0.0152588
0.0228882
0.0534058
0.0228882
0.038147
0.00762939
-0.0228882
0.00762939
0.0534058
0.0305176
0.0152588
0.0610352
0.0534058
0
0.0457764
0.0228882
0.0534058
0.0228882
-0.038147
-0.0534058
-0.0305176
0.0152588
-0.0152588
-0.00762939
0.0152588
-0.0457764
-0.0152588
-0.00762939
-0.0762939
-0.0686646
-0.0839233
-0.00762939
-0.0305176
-0.00762939
-0.0152588
-0.0762939
0.00762939
0.0228882
-0.00762939
-0.0152588
0.0534058
0.0610352
0.038147
0.00762939
-0.0305176
-0.0457764
0.0991821
0.0915527
0.114441
0.0610352
0.0686646
0.0762939
0.0762939
0.0686646
0.00762939
-0.038147
0.0915527
0.114441
0.1297
0.0762939
0.0686646
0.0610352
0.0534058
0.0534058
-0.0228882
-0.0686646
0.0686646
0.0457764
0.0457764
0.0534058
0.0305176
-0.0228882
0.0228882
-0.038147
-0.106812
-0.0457764
0.038147
-0.00762939
-0.0152588
0.00762939
-0.0152588
-0.0305176
-0.00762939
-0.038147
-0.0534058
-0.00762939
)
;

boundaryField
{
    left
    {
        type            calculated;
        value           nonuniform List<scalar> 10(-0.0457764 -0.106812 -0.0228882 0.0534058 -0.0152588 0.00762939 0.0991821 0.0915527 0.0686646 0.038147);
    }
    right
    {
        type            calculated;
        value           nonuniform List<scalar> 10(0 0.00762939 0.0228882 -0.0457764 -0.0762939 -0.0457764 -0.038147 -0.0686646 -0.0457764 -0.00762939);
    }
    top
    {
        type            calculated;
        value           uniform 0;
    }
    bottom
    {
        type            calculated;
        value           uniform 0;
    }
    defaultFaces
    {
        type            empty;
    }
}


// ************************************************************************* //
