/*--------------------------------*- C++ -*----------------------------------*\
| =========                 |                                                 |
| \\      /  F ield         | OpenFOAM: The Open Source CFD Toolbox           |
|  \\    /   O peration     | Version:  2406                                  |
|   \\  /    A nd           | Website:  www.openfoam.com                      |
|    \\/     M anipulation  |                                                 |
\*---------------------------------------------------------------------------*/
FoamFile
{
    version     2.0;
    format      ascii;
    arch        "LSB;label=32;scalar=64";
    class       volVectorField;
    location    "7.9";
    object      flux;
}
// * * * * * * * * * * * * * * * * * * * * * * * * * * * * * * * * * * * * * //

dimensions      [0 1 -1 1 0 0 0];

internalField   nonuniform List<vector> 
100
(
(-8.79609e+14 -7.91648e+14 0)
(-1.84718e+15 -1.75922e+14 0)
(8.79609e+13 5.27766e+14 0)
(4.39805e+14 7.03687e+14 0)
(-1.84718e+15 8.79609e+13 0)
(-1.5833e+15 -2.63883e+14 0)
(1.75922e+14 -8.79609e+13 0)
(0 8.79609e+13 0)
(3.51844e+14 -8.79609e+13 0)
(6.15727e+14 0 0)
(-3.51844e+14 -1.5833e+15 0)
(-3.51844e+14 -2.63883e+14 0)
(9.6757e+14 1.49534e+15 0)
(-8.79609e+13 1.31941e+15 0)
(-2.81475e+15 8.79609e+13 0)
(-1.67126e+15 2.63883e+14 0)
(5.27766e+14 5.27766e+14 0)
(0 3.51844e+14 0)
(2.63883e+14 6.15727e+14 0)
(7.03687e+14 2.63883e+14 0)
(4.39805e+14 0 0)
(1.23145e+15 6.15727e+14 0)
(1.49534e+15 6.15727e+14 0)
(-7.91648e+14 4.39805e+14 0)
(-3.07863e+15 3.51844e+14 0)
(-1.23145e+15 1.23145e+15 0)
(3.51844e+14 7.03687e+14 0)
(1.75922e+14 0 0)
(1.75922e+14 1.31941e+15 0)
(1.75922e+14 5.27766e+14 0)
(1.75922e+14 1.23145e+15 0)
(5.27766e+14 5.27766e+14 0)
(8.79609e+14 -2.63883e+14 0)
(-4.39805e+14 -7.91648e+14 0)
(-2.0231e+15 -1.75922e+14 0)
(-1.40737e+15 3.51844e+14 0)
(-6.15727e+14 -2.63883e+14 0)
(4.39805e+14 -8.79609e+13 0)
(7.91648e+14 5.27766e+14 0)
(8.79609e+13 -3.51844e+14 0)
(-2.63883e+14 0 0)
(-4.39805e+14 -8.79609e+13 0)
(3.51844e+14 -1.14349e+15 0)
(-7.91648e+14 -1.14349e+15 0)
(-1.93514e+15 -9.6757e+14 0)
(-1.05553e+15 1.75922e+14 0)
(-1.75922e+14 -1.75922e+14 0)
(9.6757e+14 3.51844e+14 0)
(-1.75922e+14 8.79609e+13 0)
(-7.91648e+14 -5.27766e+14 0)
(1.75922e+14 0 0)
(-7.91648e+14 8.79609e+13 0)
(-2.63883e+14 8.79609e+13 0)
(-1.75922e+14 -8.79609e+13 0)
(-6.15727e+14 7.03687e+14 0)
(-7.91648e+14 1.31941e+15 0)
(-6.15727e+14 1.14349e+15 0)
(9.6757e+14 7.03687e+14 0)
(0 2.63883e+14 0)
(-7.03687e+14 -8.79609e+13 0)
(0 1.23145e+15 0)
(-1.75922e+14 1.5833e+15 0)
(0 1.93514e+15 0)
(-8.79609e+13 9.6757e+14 0)
(-6.15727e+14 1.49534e+15 0)
(-5.27766e+14 1.14349e+15 0)
(-7.03687e+14 1.49534e+15 0)
(-2.63883e+14 8.79609e+14 0)
(-8.79609e+14 1.75922e+14 0)
(-9.6757e+14 -7.91648e+14 0)
(1.75922e+14 1.31941e+15 0)
(-8.79609e+13 1.93514e+15 0)
(-7.03687e+14 2.0231e+15 0)
(-7.03687e+14 1.31941e+15 0)
(-4.39805e+14 1.14349e+15 0)
(-7.91648e+14 1.23145e+15 0)
(-7.91648e+14 1.14349e+15 0)
(-2.63883e+14 6.15727e+14 0)
(-1.84718e+15 -3.51844e+14 0)
(-1.67126e+15 -1.05553e+15 0)
(7.91648e+14 9.6757e+14 0)
(3.51844e+14 8.79609e+14 0)
(-7.03687e+14 7.91648e+14 0)
(-1.14349e+15 9.6757e+14 0)
(-5.27766e+14 6.15727e+14 0)
(-7.03687e+14 -8.79609e+13 0)
(-1.14349e+15 7.03687e+14 0)
(-1.5833e+15 -1.75922e+14 0)
(-2.46291e+15 -1.49534e+15 0)
(-1.75922e+15 -5.27766e+14 0)
(1.75922e+14 5.27766e+14 0)
(-3.51844e+14 0 0)
(-4.39805e+14 -2.63883e+14 0)
(-6.15727e+14 4.39805e+14 0)
(-1.49534e+15 2.63883e+14 0)
(-7.91648e+14 -4.39805e+14 0)
(-1.05553e+15 0 0)
(-2.63883e+15 -2.63883e+14 0)
(-2.19902e+15 -1.14349e+15 0)
(-6.15727e+14 0 0)
)
;

boundaryField
{
    left
    {
        type            calculated;
        value           nonuniform List<vector> 10((0 -7.91648e+14 0) (0 -1.5833e+15 0) (0 0 0) (0 1.23145e+15 0) (0 0 0) (0 0 0) (0 1.23145e+15 0) (0 1.31941e+15 0) (0 9.6757e+14 0) (0 5.27766e+14 0));
    }
    right
    {
        type            calculated;
        value           nonuniform List<vector> 10((0 0 0) (0 2.63883e+14 0) (0 5.27766e+14 0) (0 -3.51844e+14 0) (0 -5.27766e+14 0) (0 -8.79609e+13 0) (0 -7.91648e+14 0) (0 -1.05553e+15 0) (0 -5.27766e+14 0) (0 0 0));
    }
    top
    {
        type            calculated;
        value           nonuniform List<vector> 10((1.75922e+14 0 0) (-3.51844e+14 0 0) (-4.39805e+14 0 0) (-6.15727e+14 0 0) (-1.49534e+15 0 0) (-7.91648e+14 0 0) (-1.05553e+15 0 0) (-2.63883e+15 0 0) (-2.19902e+15 0 0) (-6.15727e+14 0 0));
    }
    bottom
    {
        type            calculated;
        value           nonuniform List<vector> 10((-8.79609e+14 0 0) (-1.84718e+15 0 0) (8.79609e+13 0 0) (4.39805e+14 0 0) (-1.84718e+15 0 0) (-1.5833e+15 0 0) (1.75922e+14 0 0) (0 0 0) (3.51844e+14 0 0) (6.15727e+14 0 0));
    }
    defaultFaces
    {
        type            empty;
    }
}


// ************************************************************************* //
