/*--------------------------------*- C++ -*----------------------------------*\
| =========                 |                                                 |
| \\      /  F ield         | OpenFOAM: The Open Source CFD Toolbox           |
|  \\    /   O peration     | Version:  2406                                  |
|   \\  /    A nd           | Website:  www.openfoam.com                      |
|    \\/     M anipulation  |                                                 |
\*---------------------------------------------------------------------------*/
FoamFile
{
    version     2.0;
    format      ascii;
    arch        "LSB;label=32;scalar=64";
    class       volVectorField;
    location    "9.95";
    object      flux;
}
// * * * * * * * * * * * * * * * * * * * * * * * * * * * * * * * * * * * * * //

dimensions      [0 1 -1 1 0 0 0];

internalField   nonuniform List<vector> 
100
(
(-9.44473e+23 -9.44473e+23 0)
(-2.26674e+24 -3.77789e+23 0)
(-5.66684e+23 3.77789e+23 0)
(0 9.44473e+23 0)
(-2.45563e+24 3.77789e+23 0)
(-1.88895e+24 1.88895e+23 0)
(-1.88895e+23 5.66684e+23 0)
(0 3.77789e+23 0)
(7.55579e+23 0 0)
(9.44473e+23 -1.88895e+23 0)
(-3.77789e+23 -2.07784e+24 0)
(-1.13337e+24 -5.66684e+23 0)
(7.55579e+23 1.70005e+24 0)
(-1.88895e+23 1.51116e+24 0)
(-3.02231e+24 5.66684e+23 0)
(-1.70005e+24 1.88895e+23 0)
(1.88895e+23 1.32226e+24 0)
(-5.66684e+23 1.13337e+24 0)
(0 1.32226e+24 0)
(5.66684e+23 5.66684e+23 0)
(3.77789e+23 -1.88895e+23 0)
(1.51116e+24 1.88895e+23 0)
(1.51116e+24 1.32226e+24 0)
(-9.44473e+23 7.55579e+23 0)
(-3.77789e+24 7.55579e+23 0)
(-1.32226e+24 1.13337e+24 0)
(5.66684e+23 3.77789e+23 0)
(1.88895e+23 0 0)
(0 1.32226e+24 0)
(1.88895e+23 1.13337e+24 0)
(1.88895e+23 1.32226e+24 0)
(5.66684e+23 5.66684e+23 0)
(1.13337e+24 -7.55579e+23 0)
(-5.66684e+23 -7.55579e+23 0)
(-2.64453e+24 -7.55579e+23 0)
(-2.26674e+24 5.66684e+23 0)
(-7.55579e+23 -3.77789e+23 0)
(1.88895e+23 -1.88895e+23 0)
(1.13337e+24 1.88895e+23 0)
(7.55579e+23 -3.77789e+23 0)
(-1.88895e+23 -1.88895e+23 0)
(-5.66684e+23 -1.88895e+23 0)
(3.77789e+23 -1.51116e+24 0)
(-9.44473e+23 -9.44473e+23 0)
(-2.83342e+24 -1.13337e+24 0)
(-9.44473e+23 -1.88895e+23 0)
(0 -1.88895e+23 0)
(7.55579e+23 3.77789e+23 0)
(0 7.55579e+23 0)
(-7.55579e+23 -1.32226e+24 0)
(-1.88895e+23 0 0)
(-7.55579e+23 1.88895e+23 0)
(3.77789e+23 3.77789e+23 0)
(-3.77789e+23 1.88895e+23 0)
(-1.70005e+24 1.13337e+24 0)
(-1.32226e+24 1.88895e+24 0)
(-3.77789e+23 9.44473e+23 0)
(1.32226e+24 7.55579e+23 0)
(-5.66684e+23 0 0)
(-1.32226e+24 -5.66684e+23 0)
(3.77789e+23 1.32226e+24 0)
(0 2.26674e+24 0)
(0 2.64453e+24 0)
(-1.88895e+23 5.66684e+23 0)
(-9.44473e+23 1.88895e+24 0)
(-1.13337e+24 1.88895e+24 0)
(-1.13337e+24 1.51116e+24 0)
(-1.88895e+23 7.55579e+23 0)
(-1.13337e+24 1.88895e+23 0)
(-1.32226e+24 -7.55579e+23 0)
(3.77789e+23 1.88895e+24 0)
(1.88895e+23 2.64453e+24 0)
(-9.44473e+23 2.64453e+24 0)
(-1.13337e+24 1.70005e+24 0)
(-5.66684e+23 1.51116e+24 0)
(-1.32226e+24 1.51116e+24 0)
(-1.32226e+24 1.51116e+24 0)
(-3.77789e+23 7.55579e+23 0)
(-2.26674e+24 -7.55579e+23 0)
(-2.07784e+24 -1.51116e+24 0)
(1.32226e+24 1.70005e+24 0)
(9.44473e+23 1.13337e+24 0)
(-1.13337e+24 7.55579e+23 0)
(-1.51116e+24 1.32226e+24 0)
(-7.55579e+23 5.66684e+23 0)
(-1.51116e+24 1.88895e+23 0)
(-1.88895e+24 7.55579e+23 0)
(-2.07784e+24 0 0)
(-3.4001e+24 -2.45563e+24 0)
(-2.07784e+24 -7.55579e+23 0)
(1.88895e+23 1.13337e+24 0)
(-9.44473e+23 -1.88895e+23 0)
(-7.55579e+23 -5.66684e+23 0)
(-1.32226e+24 1.88895e+23 0)
(-1.70005e+24 -5.66684e+23 0)
(-9.44473e+23 -7.55579e+23 0)
(-1.70005e+24 1.88895e+23 0)
(-3.77789e+24 -7.55579e+23 0)
(-2.83342e+24 -1.32226e+24 0)
(-3.77789e+23 1.88895e+23 0)
)
;

boundaryField
{
    left
    {
        type            calculated;
        value           nonuniform List<vector> 10((0 -9.44473e+23 0) (0 -2.07784e+24 0) (0 -1.88895e+23 0) (0 1.32226e+24 0) (0 -1.88895e+23 0) (0 0 0) (0 1.32226e+24 0) (0 1.88895e+24 0) (0 1.70005e+24 0) (0 1.13337e+24 0));
    }
    right
    {
        type            calculated;
        value           nonuniform List<vector> 10((0 -1.88895e+23 0) (0 5.66684e+23 0) (0 1.13337e+24 0) (0 -3.77789e+23 0) (0 -1.32226e+24 0) (0 -5.66684e+23 0) (0 -7.55579e+23 0) (0 -1.51116e+24 0) (0 -7.55579e+23 0) (0 1.88895e+23 0));
    }
    top
    {
        type            calculated;
        value           nonuniform List<vector> 10((1.88895e+23 0 0) (-9.44473e+23 0 0) (-7.55579e+23 0 0) (-1.32226e+24 0 0) (-1.70005e+24 0 0) (-9.44473e+23 0 0) (-1.70005e+24 0 0) (-3.77789e+24 0 0) (-2.83342e+24 0 0) (-3.77789e+23 0 0));
    }
    bottom
    {
        type            calculated;
        value           nonuniform List<vector> 10((-9.44473e+23 0 0) (-2.26674e+24 0 0) (-5.66684e+23 0 0) (0 0 0) (-2.45563e+24 0 0) (-1.88895e+24 0 0) (-1.88895e+23 0 0) (0 0 0) (7.55579e+23 0 0) (9.44473e+23 0 0));
    }
    defaultFaces
    {
        type            empty;
    }
}


// ************************************************************************* //
