/*--------------------------------*- C++ -*----------------------------------*\
| =========                 |                                                 |
| \\      /  F ield         | OpenFOAM: The Open Source CFD Toolbox           |
|  \\    /   O peration     | Version:  2406                                  |
|   \\  /    A nd           | Website:  www.openfoam.com                      |
|    \\/     M anipulation  |                                                 |
\*---------------------------------------------------------------------------*/
FoamFile
{
    version     2.0;
    format      ascii;
    arch        "LSB;label=32;scalar=64";
    class       volScalarField;
    location    "9.05";
    object      gradTx;
}
// * * * * * * * * * * * * * * * * * * * * * * * * * * * * * * * * * * * * * //

dimensions      [0 -1 0 1 0 0 0];

internalField   nonuniform List<scalar> 
100
(
-2.01761e+21
-6.05284e+21
-1.15292e+21
1.15292e+21
-5.76461e+21
-4.89992e+21
1.44115e+21
8.64691e+20
1.15292e+21
1.44115e+21
-1.15292e+21
-2.59407e+21
2.01761e+21
1.15292e+21
-7.78222e+21
-5.47638e+21
1.44115e+21
5.76461e+20
1.44115e+21
1.72938e+21
2.01761e+21
3.45876e+21
5.18815e+21
-1.72938e+21
-8.93514e+21
-4.03523e+21
8.64691e+20
1.44115e+21
5.76461e+20
8.64691e+20
5.76461e+20
5.76461e+20
2.59407e+21
-1.15292e+21
-5.76461e+21
-4.61169e+21
-1.72938e+21
1.15292e+21
3.17053e+21
2.30584e+21
-8.64691e+20
-1.15292e+21
5.76461e+20
-3.45876e+21
-6.34107e+21
-2.8823e+21
8.64691e+20
2.59407e+21
2.8823e+20
-1.72938e+21
2.8823e+20
-2.8823e+21
-2.8823e+20
-1.15292e+21
-2.8823e+21
-3.17053e+21
-1.15292e+21
3.45876e+21
-2.8823e+20
-2.30584e+21
2.8823e+20
-5.76461e+20
2.8823e+20
0
-2.8823e+21
-3.45876e+21
-3.17053e+21
-8.64691e+20
-2.01761e+21
-3.17053e+21
8.64691e+20
2.8823e+20
-2.01761e+21
-1.44115e+21
-1.72938e+21
-4.03523e+21
-2.8823e+21
-5.76461e+20
-5.18815e+21
-5.18815e+21
2.8823e+21
2.30584e+21
-2.59407e+21
-3.17053e+21
-2.59407e+21
-3.45876e+21
-4.03523e+21
-5.18815e+21
-8.35868e+21
-5.76461e+21
5.76461e+20
-1.15292e+21
-1.44115e+21
-3.17053e+21
-5.18815e+21
-4.03523e+21
-4.03523e+21
-8.64691e+21
-6.91753e+21
-1.44115e+21
)
;

boundaryField
{
    left
    {
        type            calculated;
        value           uniform 0;
    }
    right
    {
        type            calculated;
        value           uniform 0;
    }
    top
    {
        type            calculated;
        value           nonuniform List<scalar> 10(5.76461e+20 -1.15292e+21 -1.44115e+21 -3.17053e+21 -5.18815e+21 -4.03523e+21 -4.03523e+21 -8.64691e+21 -6.91753e+21 -1.44115e+21);
    }
    bottom
    {
        type            calculated;
        value           nonuniform List<scalar> 10(-2.01761e+21 -6.05284e+21 -1.15292e+21 1.15292e+21 -5.76461e+21 -4.89992e+21 1.44115e+21 8.64691e+20 1.15292e+21 1.44115e+21);
    }
    defaultFaces
    {
        type            empty;
    }
}


// ************************************************************************* //
