/*--------------------------------*- C++ -*----------------------------------*\
| =========                 |                                                 |
| \\      /  F ield         | OpenFOAM: The Open Source CFD Toolbox           |
|  \\    /   O peration     | Version:  2406                                  |
|   \\  /    A nd           | Website:  www.openfoam.com                      |
|    \\/     M anipulation  |                                                 |
\*---------------------------------------------------------------------------*/
FoamFile
{
    version     2.0;
    format      ascii;
    arch        "LSB;label=32;scalar=64";
    class       volScalarField;
    location    "1.4";
    object      gradTx;
}
// * * * * * * * * * * * * * * * * * * * * * * * * * * * * * * * * * * * * * //

dimensions      [0 -1 0 1 0 0 0];

internalField   nonuniform List<scalar> 
100
(
-2.498e-13
-4.44089e-13
-1.11022e-13
5.55112e-14
-4.16334e-13
-2.77556e-13
1.66533e-13
1.38778e-13
2.498e-13
2.498e-13
-8.32667e-14
-1.38778e-13
2.22045e-13
0
-6.38378e-13
-3.60822e-13
2.498e-13
5.55112e-14
2.22045e-13
2.498e-13
2.22045e-13
3.88578e-13
3.88578e-13
-1.94289e-13
-7.21645e-13
-3.33067e-13
1.66533e-13
3.05311e-13
1.38778e-13
2.77556e-14
1.11022e-13
1.38778e-13
1.94289e-13
-1.11022e-13
-3.88578e-13
-3.33067e-13
-1.38778e-13
2.22045e-13
3.05311e-13
1.11022e-13
-1.11022e-13
-8.32667e-14
1.38778e-13
-1.66533e-13
-4.71845e-13
-1.94289e-13
2.77556e-14
3.60822e-13
1.11022e-13
-1.11022e-13
5.55112e-14
-5.55112e-14
5.55112e-14
-5.55112e-14
-2.498e-13
-8.32667e-14
0
4.44089e-13
-5.55112e-14
-2.498e-13
8.32667e-14
8.32667e-14
8.32667e-14
2.77556e-14
-1.94289e-13
-1.66533e-13
-5.55112e-14
1.66533e-13
-1.66533e-13
-2.498e-13
1.94289e-13
1.11022e-13
-1.38778e-13
-8.32667e-14
-2.77556e-14
-2.22045e-13
-1.11022e-13
5.55112e-14
-4.16334e-13
-3.33067e-13
2.498e-13
1.66533e-13
-1.11022e-13
-1.38778e-13
-8.32667e-14
-2.498e-13
-2.22045e-13
-3.33067e-13
-6.66134e-13
-3.88578e-13
8.32667e-14
-5.55112e-14
-2.77556e-14
-1.38778e-13
-3.05311e-13
-2.22045e-13
-1.94289e-13
-6.38378e-13
-5.27356e-13
-1.38778e-13
)
;

boundaryField
{
    left
    {
        type            calculated;
        value           uniform 0;
    }
    right
    {
        type            calculated;
        value           uniform 0;
    }
    top
    {
        type            calculated;
        value           nonuniform List<scalar> 10(8.32667e-14 -5.55112e-14 -2.77556e-14 -1.38778e-13 -3.05311e-13 -2.22045e-13 -1.94289e-13 -6.38378e-13 -5.27356e-13 -1.38778e-13);
    }
    bottom
    {
        type            calculated;
        value           nonuniform List<scalar> 10(-2.498e-13 -4.44089e-13 -1.11022e-13 5.55112e-14 -4.16334e-13 -2.77556e-13 1.66533e-13 1.38778e-13 2.498e-13 2.498e-13);
    }
    defaultFaces
    {
        type            empty;
    }
}


// ************************************************************************* //
