/*--------------------------------*- C++ -*----------------------------------*\
| =========                 |                                                 |
| \\      /  F ield         | OpenFOAM: The Open Source CFD Toolbox           |
|  \\    /   O peration     | Version:  2406                                  |
|   \\  /    A nd           | Website:  www.openfoam.com                      |
|    \\/     M anipulation  |                                                 |
\*---------------------------------------------------------------------------*/
FoamFile
{
    version     2.0;
    format      ascii;
    arch        "LSB;label=32;scalar=64";
    class       volScalarField;
    location    "8.45";
    object      gradTx;
}
// * * * * * * * * * * * * * * * * * * * * * * * * * * * * * * * * * * * * * //

dimensions      [0 -1 0 1 0 0 0];

internalField   nonuniform List<scalar> 
100
(
-5.06655e+18
-1.35108e+19
-4.5036e+18
1.68885e+18
-9.57015e+18
-5.6295e+18
0
-2.2518e+18
2.81475e+18
5.06655e+18
-1.1259e+18
-4.5036e+18
4.5036e+18
-1.68885e+18
-1.57626e+19
-7.31835e+18
1.68885e+18
-2.2518e+18
2.2518e+18
5.06655e+18
3.94065e+18
9.57015e+18
1.01331e+19
-4.5036e+18
-1.91403e+19
-1.01331e+19
2.2518e+18
3.3777e+18
1.68885e+18
0
2.2518e+18
4.5036e+18
7.8813e+18
-2.81475e+18
-1.29478e+19
-9.57015e+18
-5.06655e+18
1.68885e+18
5.6295e+18
3.3777e+18
-1.1259e+18
-5.6295e+17
2.81475e+18
-6.19245e+18
-1.29478e+19
-6.7554e+18
-1.68885e+18
6.19245e+18
1.1259e+18
-3.3777e+18
1.68885e+18
-3.94065e+18
1.68885e+18
-2.81475e+18
-7.31835e+18
-5.06655e+18
-2.81475e+18
6.19245e+18
-5.6295e+17
-4.5036e+18
1.1259e+18
-5.6295e+17
5.6295e+17
1.1259e+18
-3.94065e+18
-7.8813e+18
-7.31835e+18
-1.68885e+18
-3.94065e+18
-3.3777e+18
3.3777e+18
1.68885e+18
-3.94065e+18
-2.2518e+18
-2.81475e+18
-6.7554e+18
-7.31835e+18
-3.94065e+18
-1.1259e+19
-9.57015e+18
5.06655e+18
5.6295e+18
-2.81475e+18
-7.8813e+18
-6.7554e+18
-7.8813e+18
-9.57015e+18
-1.1259e+19
-1.68885e+19
-9.57015e+18
1.1259e+18
0
-1.68885e+18
-8.44425e+18
-1.18219e+19
-7.31835e+18
-9.0072e+18
-1.97032e+19
-1.40737e+19
-3.3777e+18
)
;

boundaryField
{
    left
    {
        type            calculated;
        value           uniform 0;
    }
    right
    {
        type            calculated;
        value           uniform 0;
    }
    top
    {
        type            calculated;
        value           nonuniform List<scalar> 10(1.1259e+18 0 -1.68885e+18 -8.44425e+18 -1.18219e+19 -7.31835e+18 -9.0072e+18 -1.97032e+19 -1.40737e+19 -3.3777e+18);
    }
    bottom
    {
        type            calculated;
        value           nonuniform List<scalar> 10(-5.06655e+18 -1.35108e+19 -4.5036e+18 1.68885e+18 -9.57015e+18 -5.6295e+18 0 -2.2518e+18 2.81475e+18 5.06655e+18);
    }
    defaultFaces
    {
        type            empty;
    }
}


// ************************************************************************* //
