/*--------------------------------*- C++ -*----------------------------------*\
| =========                 |                                                 |
| \\      /  F ield         | OpenFOAM: The Open Source CFD Toolbox           |
|  \\    /   O peration     | Version:  2406                                  |
|   \\  /    A nd           | Website:  www.openfoam.com                      |
|    \\/     M anipulation  |                                                 |
\*---------------------------------------------------------------------------*/
FoamFile
{
    version     2.0;
    format      ascii;
    arch        "LSB;label=32;scalar=64";
    class       volScalarField;
    location    "5.9";
    object      gradTx;
}
// * * * * * * * * * * * * * * * * * * * * * * * * * * * * * * * * * * * * * //

dimensions      [0 -1 0 1 0 0 0];

internalField   nonuniform List<scalar> 
100
(
-2.4576e+07
-5.7344e+07
-4.096e+06
1.6384e+07
-4.9152e+07
-4.096e+07
1.2288e+07
1.2288e+07
2.048e+07
2.048e+07
-8.192e+06
-2.048e+07
2.8672e+07
1.6384e+07
-7.3728e+07
-4.096e+07
2.048e+07
-4.096e+06
8.192e+06
2.048e+07
1.2288e+07
3.6864e+07
4.9152e+07
-1.6384e+07
-7.7824e+07
-2.048e+07
1.2288e+07
4.096e+06
4.096e+06
0
8.192e+06
1.6384e+07
3.2768e+07
-8.192e+06
-4.9152e+07
-4.5056e+07
-1.6384e+07
1.6384e+07
2.8672e+07
1.6384e+07
4.096e+06
-8.192e+06
8.192e+06
-2.048e+07
-4.9152e+07
-2.4576e+07
0
2.4576e+07
4.096e+06
-1.6384e+07
4.096e+06
-1.6384e+07
0
-8.192e+06
-3.2768e+07
-1.6384e+07
-4.096e+06
2.8672e+07
0
-1.6384e+07
4.096e+06
-4.096e+06
4.096e+06
0
-2.048e+07
-1.6384e+07
-2.4576e+07
-1.2288e+07
-1.6384e+07
-1.6384e+07
1.2288e+07
8.192e+06
-2.048e+07
-1.6384e+07
-1.6384e+07
-3.2768e+07
-2.8672e+07
-8.192e+06
-4.5056e+07
-4.096e+07
2.048e+07
8.192e+06
-2.048e+07
-2.4576e+07
-2.8672e+07
-2.8672e+07
-3.6864e+07
-4.5056e+07
-7.7824e+07
-4.5056e+07
-4.096e+06
-1.6384e+07
-1.6384e+07
-3.2768e+07
-4.5056e+07
-2.4576e+07
-3.2768e+07
-8.6016e+07
-6.9632e+07
-1.2288e+07
)
;

boundaryField
{
    left
    {
        type            calculated;
        value           uniform 0;
    }
    right
    {
        type            calculated;
        value           uniform 0;
    }
    top
    {
        type            calculated;
        value           nonuniform List<scalar> 10(-4.096e+06 -1.6384e+07 -1.6384e+07 -3.2768e+07 -4.5056e+07 -2.4576e+07 -3.2768e+07 -8.6016e+07 -6.9632e+07 -1.2288e+07);
    }
    bottom
    {
        type            calculated;
        value           nonuniform List<scalar> 10(-2.4576e+07 -5.7344e+07 -4.096e+06 1.6384e+07 -4.9152e+07 -4.096e+07 1.2288e+07 1.2288e+07 2.048e+07 2.048e+07);
    }
    defaultFaces
    {
        type            empty;
    }
}


// ************************************************************************* //
