/*--------------------------------*- C++ -*----------------------------------*\
| =========                 |                                                 |
| \\      /  F ield         | OpenFOAM: The Open Source CFD Toolbox           |
|  \\    /   O peration     | Version:  2406                                  |
|   \\  /    A nd           | Website:  www.openfoam.com                      |
|    \\/     M anipulation  |                                                 |
\*---------------------------------------------------------------------------*/
FoamFile
{
    version     2.0;
    format      ascii;
    arch        "LSB;label=32;scalar=64";
    class       volVectorField;
    location    "4.9";
    object      flux;
}
// * * * * * * * * * * * * * * * * * * * * * * * * * * * * * * * * * * * * * //

dimensions      [0 1 -1 1 0 0 0];

internalField   nonuniform List<vector> 
100
(
(-30 -30 0)
(-65 -10 0)
(0 25 0)
(15 30 0)
(-85 15 0)
(-55 0 0)
(15 10 0)
(15 15 0)
(35 5 0)
(30 10 0)
(-10 -60 0)
(-10 -10 0)
(35 65 0)
(5 55 0)
(-115 15 0)
(-60 20 0)
(35 30 0)
(5 25 0)
(25 25 0)
(35 5 0)
(25 5 0)
(55 25 0)
(60 40 0)
(-30 30 0)
(-120 25 0)
(-45 60 0)
(25 25 0)
(15 5 0)
(5 35 0)
(15 25 0)
(10 40 0)
(25 20 0)
(50 -25 0)
(-15 -10 0)
(-80 -15 0)
(-60 25 0)
(-20 0 0)
(10 0 0)
(45 15 0)
(25 -20 0)
(0 -5 0)
(-10 -15 0)
(40 -45 0)
(-30 -40 0)
(-85 -50 0)
(-30 -5 0)
(10 -15 0)
(20 0 0)
(-5 5 0)
(-20 -45 0)
(0 5 0)
(-15 15 0)
(20 5 0)
(-15 -15 0)
(-50 25 0)
(-30 35 0)
(-20 25 0)
(40 5 0)
(5 0 0)
(-30 -25 0)
(10 55 0)
(-5 75 0)
(5 85 0)
(-5 30 0)
(-35 60 0)
(-25 50 0)
(-25 55 0)
(-5 35 0)
(-35 0 0)
(-45 -45 0)
(20 70 0)
(10 85 0)
(-20 105 0)
(-40 60 0)
(-30 40 0)
(-35 40 0)
(-40 35 0)
(-10 20 0)
(-75 -35 0)
(-75 -55 0)
(25 55 0)
(35 35 0)
(-20 35 0)
(-70 40 0)
(-55 15 0)
(-35 -10 0)
(-35 15 0)
(-80 -5 0)
(-115 -90 0)
(-65 -35 0)
(5 25 0)
(-5 10 0)
(-20 -10 0)
(-60 5 0)
(-85 0 0)
(-35 -25 0)
(-35 -10 0)
(-120 -20 0)
(-95 -45 0)
(-20 0 0)
)
;

boundaryField
{
    left
    {
        type            calculated;
        value           nonuniform List<vector> 10((0 -30 0) (0 -60 0) (0 5 0) (0 40 0) (0 -5 0) (0 5 0) (0 55 0) (0 70 0) (0 55 0) (0 25 0));
    }
    right
    {
        type            calculated;
        value           nonuniform List<vector> 10((0 10 0) (0 5 0) (0 25 0) (0 -20 0) (0 -45 0) (0 -25 0) (0 -45 0) (0 -55 0) (0 -35 0) (0 0 0));
    }
    top
    {
        type            calculated;
        value           nonuniform List<vector> 10((5 0 0) (-5 0 0) (-20 0 0) (-60 0 0) (-85 0 0) (-35 0 0) (-35 0 0) (-120 0 0) (-95 0 0) (-20 0 0));
    }
    bottom
    {
        type            calculated;
        value           nonuniform List<vector> 10((-30 0 0) (-65 0 0) (0 0 0) (15 0 0) (-85 0 0) (-55 0 0) (15 0 0) (15 0 0) (35 0 0) (30 0 0));
    }
    defaultFaces
    {
        type            empty;
    }
}


// ************************************************************************* //
