/*--------------------------------*- C++ -*----------------------------------*\
| =========                 |                                                 |
| \\      /  F ield         | OpenFOAM: The Open Source CFD Toolbox           |
|  \\    /   O peration     | Version:  2406                                  |
|   \\  /    A nd           | Website:  www.openfoam.com                      |
|    \\/     M anipulation  |                                                 |
\*---------------------------------------------------------------------------*/
FoamFile
{
    version     2.0;
    format      ascii;
    arch        "LSB;label=32;scalar=64";
    class       volScalarField;
    location    "4.9";
    object      gradTx;
}
// * * * * * * * * * * * * * * * * * * * * * * * * * * * * * * * * * * * * * //

dimensions      [0 -1 0 1 0 0 0];

internalField   nonuniform List<scalar> 
100
(
-750
-1625
0
375
-2125
-1375
375
375
875
750
-250
-250
875
125
-2875
-1500
875
125
625
875
625
1375
1500
-750
-3000
-1125
625
375
125
375
250
625
1250
-375
-2000
-1500
-500
250
1125
625
0
-250
1000
-750
-2125
-750
250
500
-125
-500
0
-375
500
-375
-1250
-750
-500
1000
125
-750
250
-125
125
-125
-875
-625
-625
-125
-875
-1125
500
250
-500
-1000
-750
-875
-1000
-250
-1875
-1875
625
875
-500
-1750
-1375
-875
-875
-2000
-2875
-1625
125
-125
-500
-1500
-2125
-875
-875
-3000
-2375
-500
)
;

boundaryField
{
    left
    {
        type            calculated;
        value           uniform 0;
    }
    right
    {
        type            calculated;
        value           uniform 0;
    }
    top
    {
        type            calculated;
        value           nonuniform List<scalar> 10(125 -125 -500 -1500 -2125 -875 -875 -3000 -2375 -500);
    }
    bottom
    {
        type            calculated;
        value           nonuniform List<scalar> 10(-750 -1625 0 375 -2125 -1375 375 375 875 750);
    }
    defaultFaces
    {
        type            empty;
    }
}


// ************************************************************************* //
