/*--------------------------------*- C++ -*----------------------------------*\
| =========                 |                                                 |
| \\      /  F ield         | OpenFOAM: The Open Source CFD Toolbox           |
|  \\    /   O peration     | Version:  2406                                  |
|   \\  /    A nd           | Website:  www.openfoam.com                      |
|    \\/     M anipulation  |                                                 |
\*---------------------------------------------------------------------------*/
FoamFile
{
    version     2.0;
    format      ascii;
    arch        "LSB;label=32;scalar=64";
    class       volVectorField;
    location    "6";
    object      flux;
}
// * * * * * * * * * * * * * * * * * * * * * * * * * * * * * * * * * * * * * //

dimensions      [0 1 -1 1 0 0 0];

internalField   nonuniform List<vector> 
100
(
(-2.29376e+06 -2.29376e+06 0)
(-5.89824e+06 -1.31072e+06 0)
(327680 1.6384e+06 0)
(983040 1.6384e+06 0)
(-7.20896e+06 1.31072e+06 0)
(-4.25984e+06 983040 0)
(2.29376e+06 983040 0)
(983040 1.6384e+06 0)
(2.94912e+06 327680 0)
(2.94912e+06 -327680 0)
(-1.31072e+06 -5.89824e+06 0)
(-1.6384e+06 -1.31072e+06 0)
(3.2768e+06 4.58752e+06 0)
(983040 3.93216e+06 0)
(-8.51968e+06 1.6384e+06 0)
(-4.58752e+06 2.62144e+06 0)
(2.94912e+06 3.2768e+06 0)
(983040 2.62144e+06 0)
(655360 2.62144e+06 0)
(2.29376e+06 -983040 0)
(2.29376e+06 -327680 0)
(4.58752e+06 1.96608e+06 0)
(5.89824e+06 2.94912e+06 0)
(-2.29376e+06 1.31072e+06 0)
(-9.17504e+06 1.31072e+06 0)
(-2.29376e+06 3.2768e+06 0)
(2.29376e+06 1.6384e+06 0)
(327680 -327680 0)
(0 2.62144e+06 0)
(-327680 2.62144e+06 0)
(1.31072e+06 3.2768e+06 0)
(1.6384e+06 1.6384e+06 0)
(2.29376e+06 -2.62144e+06 0)
(-655360 -2.94912e+06 0)
(-5.57056e+06 -1.6384e+06 0)
(-4.9152e+06 1.6384e+06 0)
(-983040 -2.29376e+06 0)
(2.29376e+06 -1.6384e+06 0)
(3.2768e+06 327680 0)
(1.96608e+06 -327680 0)
(-327680 0 0)
(-983040 -983040 0)
(1.6384e+06 -3.60448e+06 0)
(-1.6384e+06 -2.94912e+06 0)
(-4.58752e+06 -3.93216e+06 0)
(-3.2768e+06 -327680 0)
(-327680 -1.31072e+06 0)
(3.2768e+06 0 0)
(327680 1.31072e+06 0)
(-1.31072e+06 -3.93216e+06 0)
(983040 655360 0)
(-2.29376e+06 2.29376e+06 0)
(0 983040 0)
(-327680 -327680 0)
(-2.94912e+06 3.2768e+06 0)
(-1.96608e+06 2.94912e+06 0)
(-983040 3.2768e+06 0)
(4.25984e+06 655360 0)
(-655360 -983040 0)
(-2.62144e+06 -1.6384e+06 0)
(1.31072e+06 4.58752e+06 0)
(-983040 5.57056e+06 0)
(-655360 6.88128e+06 0)
(327680 2.94912e+06 0)
(-1.6384e+06 5.24288e+06 0)
(-2.62144e+06 4.58752e+06 0)
(-2.62144e+06 4.58752e+06 0)
(-655360 2.94912e+06 0)
(-1.6384e+06 -655360 0)
(-2.62144e+06 -2.62144e+06 0)
(1.6384e+06 5.24288e+06 0)
(0 6.5536e+06 0)
(-2.29376e+06 7.86432e+06 0)
(-2.29376e+06 4.9152e+06 0)
(-1.31072e+06 3.2768e+06 0)
(-2.62144e+06 3.60448e+06 0)
(-2.62144e+06 3.2768e+06 0)
(-1.31072e+06 2.62144e+06 0)
(-5.57056e+06 -1.6384e+06 0)
(-4.9152e+06 -4.58752e+06 0)
(2.94912e+06 4.58752e+06 0)
(1.6384e+06 1.96608e+06 0)
(-2.29376e+06 2.94912e+06 0)
(-4.58752e+06 4.25984e+06 0)
(-2.94912e+06 1.31072e+06 0)
(-2.29376e+06 -655360 0)
(-3.93216e+06 1.31072e+06 0)
(-5.57056e+06 -2.29376e+06 0)
(-8.51968e+06 -5.89824e+06 0)
(-5.24288e+06 -2.94912e+06 0)
(-655360 2.62144e+06 0)
(-1.31072e+06 -327680 0)
(-327680 -655360 0)
(-3.60448e+06 1.6384e+06 0)
(-6.22592e+06 0 0)
(-2.94912e+06 -1.6384e+06 0)
(-4.25984e+06 -655360 0)
(-8.192e+06 -1.96608e+06 0)
(-6.88128e+06 -3.60448e+06 0)
(-1.6384e+06 0 0)
)
;

boundaryField
{
    left
    {
        type            calculated;
        value           nonuniform List<vector> 10((0 -2.29376e+06 0) (0 -5.89824e+06 0) (0 -327680 0) (0 3.2768e+06 0) (0 0 0) (0 655360 0) (0 4.58752e+06 0) (0 5.24288e+06 0) (0 4.58752e+06 0) (0 2.62144e+06 0));
    }
    right
    {
        type            calculated;
        value           nonuniform List<vector> 10((0 -327680 0) (0 -983040 0) (0 2.62144e+06 0) (0 -327680 0) (0 -3.93216e+06 0) (0 -1.6384e+06 0) (0 -2.62144e+06 0) (0 -4.58752e+06 0) (0 -2.94912e+06 0) (0 0 0));
    }
    top
    {
        type            calculated;
        value           nonuniform List<vector> 10((-655360 0 0) (-1.31072e+06 0 0) (-327680 0 0) (-3.60448e+06 0 0) (-6.22592e+06 0 0) (-2.94912e+06 0 0) (-4.25984e+06 0 0) (-8.192e+06 0 0) (-6.88128e+06 0 0) (-1.6384e+06 0 0));
    }
    bottom
    {
        type            calculated;
        value           nonuniform List<vector> 10((-2.29376e+06 0 0) (-5.89824e+06 0 0) (327680 0 0) (983040 0 0) (-7.20896e+06 0 0) (-4.25984e+06 0 0) (2.29376e+06 0 0) (983040 0 0) (2.94912e+06 0 0) (2.94912e+06 0 0));
    }
    defaultFaces
    {
        type            empty;
    }
}


// ************************************************************************* //
