/*--------------------------------*- C++ -*----------------------------------*\
| =========                 |                                                 |
| \\      /  F ield         | OpenFOAM: The Open Source CFD Toolbox           |
|  \\    /   O peration     | Version:  2406                                  |
|   \\  /    A nd           | Website:  www.openfoam.com                      |
|    \\/     M anipulation  |                                                 |
\*---------------------------------------------------------------------------*/
FoamFile
{
    version     2.0;
    format      ascii;
    arch        "LSB;label=32;scalar=64";
    class       volScalarField;
    location    "6";
    object      gradTx;
}
// * * * * * * * * * * * * * * * * * * * * * * * * * * * * * * * * * * * * * //

dimensions      [0 -1 0 1 0 0 0];

internalField   nonuniform List<scalar> 
100
(
-5.7344e+07
-1.47456e+08
8.192e+06
2.4576e+07
-1.80224e+08
-1.06496e+08
5.7344e+07
2.4576e+07
7.3728e+07
7.3728e+07
-3.2768e+07
-4.096e+07
8.192e+07
2.4576e+07
-2.12992e+08
-1.14688e+08
7.3728e+07
2.4576e+07
1.6384e+07
5.7344e+07
5.7344e+07
1.14688e+08
1.47456e+08
-5.7344e+07
-2.29376e+08
-5.7344e+07
5.7344e+07
8.192e+06
0
-8.192e+06
3.2768e+07
4.096e+07
5.7344e+07
-1.6384e+07
-1.39264e+08
-1.2288e+08
-2.4576e+07
5.7344e+07
8.192e+07
4.9152e+07
-8.192e+06
-2.4576e+07
4.096e+07
-4.096e+07
-1.14688e+08
-8.192e+07
-8.192e+06
8.192e+07
8.192e+06
-3.2768e+07
2.4576e+07
-5.7344e+07
0
-8.192e+06
-7.3728e+07
-4.9152e+07
-2.4576e+07
1.06496e+08
-1.6384e+07
-6.5536e+07
3.2768e+07
-2.4576e+07
-1.6384e+07
8.192e+06
-4.096e+07
-6.5536e+07
-6.5536e+07
-1.6384e+07
-4.096e+07
-6.5536e+07
4.096e+07
0
-5.7344e+07
-5.7344e+07
-3.2768e+07
-6.5536e+07
-6.5536e+07
-3.2768e+07
-1.39264e+08
-1.2288e+08
7.3728e+07
4.096e+07
-5.7344e+07
-1.14688e+08
-7.3728e+07
-5.7344e+07
-9.8304e+07
-1.39264e+08
-2.12992e+08
-1.31072e+08
-1.6384e+07
-3.2768e+07
-8.192e+06
-9.0112e+07
-1.55648e+08
-7.3728e+07
-1.06496e+08
-2.048e+08
-1.72032e+08
-4.096e+07
)
;

boundaryField
{
    left
    {
        type            calculated;
        value           uniform 0;
    }
    right
    {
        type            calculated;
        value           uniform 0;
    }
    top
    {
        type            calculated;
        value           nonuniform List<scalar> 10(-1.6384e+07 -3.2768e+07 -8.192e+06 -9.0112e+07 -1.55648e+08 -7.3728e+07 -1.06496e+08 -2.048e+08 -1.72032e+08 -4.096e+07);
    }
    bottom
    {
        type            calculated;
        value           nonuniform List<scalar> 10(-5.7344e+07 -1.47456e+08 8.192e+06 2.4576e+07 -1.80224e+08 -1.06496e+08 5.7344e+07 2.4576e+07 7.3728e+07 7.3728e+07);
    }
    defaultFaces
    {
        type            empty;
    }
}


// ************************************************************************* //
