/*--------------------------------*- C++ -*----------------------------------*\
| =========                 |                                                 |
| \\      /  F ield         | OpenFOAM: The Open Source CFD Toolbox           |
|  \\    /   O peration     | Version:  2406                                  |
|   \\  /    A nd           | Website:  www.openfoam.com                      |
|    \\/     M anipulation  |                                                 |
\*---------------------------------------------------------------------------*/
FoamFile
{
    version     2.0;
    format      ascii;
    arch        "LSB;label=32;scalar=64";
    class       volScalarField;
    location    "5.05";
    object      gradTy;
}
// * * * * * * * * * * * * * * * * * * * * * * * * * * * * * * * * * * * * * //

dimensions      [0 -1 0 1 0 0 0];

internalField   nonuniform List<scalar> 
100
(
-3000
-1000
2500
4000
1500
-1000
1000
2000
1500
500
-7000
-1500
8500
7500
1500
2000
4000
3500
4500
0
500
3000
5000
2500
2000
6500
4500
0
4500
2500
7000
3500
-3000
-4500
-2000
2000
-1500
-1500
500
-2000
-500
-2000
-5500
-5000
-5500
-2000
-2500
-1000
0
-5500
-1500
500
0
-500
3000
6000
4000
0
-2000
-3000
6000
8000
8500
5500
8500
5000
5000
4000
-500
-4000
8500
10000
11500
6500
5500
4500
4000
4000
-2500
-6000
6000
6500
4500
5000
1500
-1500
2000
-2500
-8000
-3500
2000
500
-500
1500
-500
-2500
0
-3000
-5000
0
)
;

boundaryField
{
    left
    {
        type            calculated;
        value           nonuniform List<scalar> 10(-3000 -7000 500 7000 -500 -1500 6000 8500 6000 2000);
    }
    right
    {
        type            calculated;
        value           nonuniform List<scalar> 10(500 0 2500 -2000 -5500 -3000 -4000 -6000 -3500 0);
    }
    top
    {
        type            calculated;
        value           uniform 0;
    }
    bottom
    {
        type            calculated;
        value           uniform 0;
    }
    defaultFaces
    {
        type            empty;
    }
}


// ************************************************************************* //
