/*--------------------------------*- C++ -*----------------------------------*\
| =========                 |                                                 |
| \\      /  F ield         | OpenFOAM: The Open Source CFD Toolbox           |
|  \\    /   O peration     | Version:  2406                                  |
|   \\  /    A nd           | Website:  www.openfoam.com                      |
|    \\/     M anipulation  |                                                 |
\*---------------------------------------------------------------------------*/
FoamFile
{
    version     2.0;
    format      ascii;
    arch        "LSB;label=32;scalar=64";
    class       volScalarField;
    location    "6.65";
    object      gradTx;
}
// * * * * * * * * * * * * * * * * * * * * * * * * * * * * * * * * * * * * * //

dimensions      [0 -1 0 1 0 0 0];

internalField   nonuniform List<scalar> 
100
(
-5.87203e+10
-1.09052e+11
-8.38861e+09
3.35544e+10
-8.38861e+10
-7.54975e+10
3.35544e+10
5.03316e+10
2.51658e+10
2.51658e+10
-8.38861e+09
-3.35544e+10
4.1943e+10
8.38861e+09
-1.59384e+11
-8.38861e+10
5.87203e+10
2.51658e+10
3.35544e+10
3.35544e+10
2.51658e+10
1.00663e+11
1.09052e+11
-3.35544e+10
-1.84549e+11
-7.54975e+10
3.35544e+10
5.87203e+10
1.67772e+10
-8.38861e+09
1.67772e+10
5.03316e+10
4.1943e+10
-2.51658e+10
-9.22747e+10
-9.22747e+10
-3.35544e+10
5.03316e+10
7.54975e+10
1.67772e+10
0
-8.38861e+09
2.51658e+10
-5.03316e+10
-1.09052e+11
-3.35544e+10
8.38861e+09
5.87203e+10
8.38861e+09
-4.1943e+10
1.67772e+10
-8.38861e+09
0
-1.67772e+10
-5.03316e+10
-4.1943e+10
-1.67772e+10
7.54975e+10
-8.38861e+09
-5.03316e+10
1.67772e+10
1.67772e+10
-8.38861e+09
-1.67772e+10
-3.35544e+10
-3.35544e+10
-4.1943e+10
-1.67772e+10
-5.87203e+10
-5.03316e+10
2.51658e+10
1.67772e+10
-5.03316e+10
-5.03316e+10
-3.35544e+10
-5.03316e+10
-4.1943e+10
-2.51658e+10
-1.09052e+11
-8.38861e+10
5.03316e+10
2.51658e+10
-5.87203e+10
-7.54975e+10
-5.03316e+10
-6.71089e+10
-5.87203e+10
-8.38861e+10
-1.84549e+11
-1.09052e+11
8.38861e+09
-4.1943e+10
-4.1943e+10
-5.03316e+10
-1.00663e+11
-7.54975e+10
-7.54975e+10
-1.76161e+11
-1.17441e+11
-1.67772e+10
)
;

boundaryField
{
    left
    {
        type            calculated;
        value           uniform 0;
    }
    right
    {
        type            calculated;
        value           uniform 0;
    }
    top
    {
        type            calculated;
        value           nonuniform List<scalar> 10(8.38861e+09 -4.1943e+10 -4.1943e+10 -5.03316e+10 -1.00663e+11 -7.54975e+10 -7.54975e+10 -1.76161e+11 -1.17441e+11 -1.67772e+10);
    }
    bottom
    {
        type            calculated;
        value           nonuniform List<scalar> 10(-5.87203e+10 -1.09052e+11 -8.38861e+09 3.35544e+10 -8.38861e+10 -7.54975e+10 3.35544e+10 5.03316e+10 2.51658e+10 2.51658e+10);
    }
    defaultFaces
    {
        type            empty;
    }
}


// ************************************************************************* //
