/*--------------------------------*- C++ -*----------------------------------*\
| =========                 |                                                 |
| \\      /  F ield         | OpenFOAM: The Open Source CFD Toolbox           |
|  \\    /   O peration     | Version:  2406                                  |
|   \\  /    A nd           | Website:  www.openfoam.com                      |
|    \\/     M anipulation  |                                                 |
\*---------------------------------------------------------------------------*/
FoamFile
{
    version     2.0;
    format      ascii;
    arch        "LSB;label=32;scalar=64";
    class       volScalarField;
    location    "6.9";
    object      gradTx;
}
// * * * * * * * * * * * * * * * * * * * * * * * * * * * * * * * * * * * * * //

dimensions      [0 -1 0 1 0 0 0];

internalField   nonuniform List<scalar> 
100
(
-6.0398e+11
-1.5435e+12
-1.34218e+11
6.0398e+11
-8.05306e+11
-5.36871e+11
1.34218e+11
-2.01327e+11
6.71089e+11
7.38198e+11
-3.35544e+11
-5.36871e+11
1.00663e+12
2.01327e+11
-1.61061e+12
-6.71089e+11
4.02653e+11
-6.71089e+10
2.68435e+11
4.02653e+11
4.02653e+11
1.20796e+12
1.4764e+12
-4.02653e+11
-2.2817e+12
-6.0398e+11
5.36871e+11
2.01327e+11
-1.34218e+11
-6.71089e+10
3.35544e+11
6.71089e+11
8.05306e+11
-5.36871e+11
-1.4764e+12
-7.38198e+11
-4.69762e+11
2.01327e+11
6.71089e+11
3.35544e+11
-6.71089e+10
0
5.36871e+11
-6.71089e+11
-1.74483e+12
-7.38198e+11
6.71089e+10
6.71089e+11
0
-4.02653e+11
2.68435e+11
-2.68435e+11
2.01327e+11
-2.68435e+11
-7.38198e+11
-6.0398e+11
-5.36871e+11
9.39524e+11
0
-6.0398e+11
2.68435e+11
-2.68435e+11
0
0
-6.71089e+11
-6.71089e+11
-7.38198e+11
0
-6.0398e+11
-8.05306e+11
4.02653e+11
0
-6.71089e+11
-6.71089e+11
-6.0398e+11
-8.72415e+11
-8.72415e+11
-1.34218e+11
-1.07374e+12
-1.00663e+12
5.36871e+11
4.02653e+11
-4.69762e+11
-9.39524e+11
-1.14085e+12
-1.00663e+12
-9.39524e+11
-1.4764e+12
-1.87905e+12
-1.14085e+12
-6.71089e+10
-2.68435e+11
0
-9.39524e+11
-1.61061e+12
-1.00663e+12
-1.14085e+12
-2.2817e+12
-1.61061e+12
-3.35544e+11
)
;

boundaryField
{
    left
    {
        type            calculated;
        value           uniform 0;
    }
    right
    {
        type            calculated;
        value           uniform 0;
    }
    top
    {
        type            calculated;
        value           nonuniform List<scalar> 10(-6.71089e+10 -2.68435e+11 0 -9.39524e+11 -1.61061e+12 -1.00663e+12 -1.14085e+12 -2.2817e+12 -1.61061e+12 -3.35544e+11);
    }
    bottom
    {
        type            calculated;
        value           nonuniform List<scalar> 10(-6.0398e+11 -1.5435e+12 -1.34218e+11 6.0398e+11 -8.05306e+11 -5.36871e+11 1.34218e+11 -2.01327e+11 6.71089e+11 7.38198e+11);
    }
    defaultFaces
    {
        type            empty;
    }
}


// ************************************************************************* //
