/*--------------------------------*- C++ -*----------------------------------*\
| =========                 |                                                 |
| \\      /  F ield         | OpenFOAM: The Open Source CFD Toolbox           |
|  \\    /   O peration     | Version:  v2012                                 |
|   \\  /    A nd           | Website:  www.openfoam.com                      |
|    \\/     M anipulation  |                                                 |
\*---------------------------------------------------------------------------*/
FoamFile
{
    version     2.0;
    format      ascii;
    class       volVectorField;
    location    "1";
    object      flux;
}
// * * * * * * * * * * * * * * * * * * * * * * * * * * * * * * * * * * * * * //

dimensions      [0 1 -1 1 0 0 0];


internalField   nonuniform List<vector> 
5000
(
(0 0 0)
(0 6.41205e-17 0)
(0 2.75718e-15 0)
(6.41205e-16 1.53889e-15 0)
(4.36019e-15 3.01366e-15 0)
(-8.97687e-16 -1.02593e-15 0)
(-3.71899e-15 9.61807e-16 0)
(2.56482e-16 -6.41205e-17 0)
(-8.97687e-16 3.1419e-15 0)
(0 1.28241e-16 0)
(2.56482e-16 5.12964e-16 0)
(-2.56482e-16 5.12964e-16 0)
(-2.56482e-16 3.33426e-15 0)
(8.97687e-16 1.28241e-16 0)
(7.69446e-16 2.30834e-15 0)
(-8.97687e-16 -1.28241e-16 0)
(-7.69446e-16 1.28241e-16 0)
(0 1.66713e-15 0)
(0 1.92361e-16 0)
(1.79537e-15 1.92361e-16 0)
(0 -4.48843e-16 0)
(-1.02593e-15 1.28241e-16 0)
(1.28241e-16 -1.28241e-16 0)
(-6.41205e-16 1.53889e-15 0)
(-2.56482e-16 1.92361e-16 0)
(0 1.28241e-16 0)
(0 1.28241e-16 0)
(4.61667e-15 1.34653e-15 0)
(0 3.20602e-16 0)
(-4.61667e-15 1.28241e-16 0)
(5.12964e-16 1.34653e-15 0)
(0 -1.28241e-16 0)
(-5.12964e-16 1.28241e-16 0)
(4.61667e-15 1.28241e-16 0)
(3.84723e-16 9.61807e-16 0)
(-3.59075e-15 1.15417e-15 0)
(0 -2.56482e-16 0)
(0 1.15417e-15 0)
(0 -2.56482e-16 0)
(3.59075e-15 1.79537e-15 0)
(5.12964e-16 3.20602e-16 0)
(-4.61667e-15 -2.56482e-16 0)
(-1.15417e-15 1.28241e-16 0)
(0 1.41065e-15 0)
(2.56482e-16 1.28241e-16 0)
(8.97687e-16 1.28241e-16 0)
(0 2.24422e-15 0)
(-8.97687e-16 1.28241e-16 0)
(0 1.28241e-16 0)
(0 1.28241e-16 0)
(0 1.28241e-16 0)
(0 1.28241e-16 0)
(0 1.28241e-16 0)
(0 1.28241e-16 0)
(0 3.84723e-16 0)
(0 1.28241e-16 0)
(8.97687e-16 1.28241e-16 0)
(0 -3.20602e-16 0)
(-8.97687e-16 0 0)
(0 0 0)
(0 3.84723e-16 0)
(0 9.61807e-16 0)
(3.46251e-15 0 0)
(2.56482e-16 -1.28241e-15 0)
(-3.71899e-15 0 0)
(0 1.28241e-16 0)
(0 3.84723e-16 0)
(4.61667e-15 1.28241e-16 0)
(0 -1.60301e-15 0)
(-1.15417e-15 0 0)
(3.59075e-15 -1.28241e-15 0)
(-2.69306e-15 -1.28241e-15 0)
(-2.56482e-15 2.30834e-15 0)
(-6.41205e-16 -2.56482e-16 0)
(-6.41205e-16 0 0)
(-2.56482e-16 2.56482e-16 0)
(6.41205e-16 1.28241e-16 0)
(5.12964e-16 -3.20602e-16 0)
(2.43658e-15 -1.92361e-16 0)
(-3.84723e-16 -9.61807e-16 0)
(-3.46251e-15 2.62894e-15 0)
(-2.56482e-16 1.28241e-16 0)
(1.02593e-15 6.41205e-17 0)
(1.02593e-15 -3.20602e-16 0)
(-3.84723e-16 5.77084e-16 0)
(0 2.43658e-15 0)
(2.94954e-15 5.77084e-16 0)
(2.56482e-16 -9.61807e-16 0)
(-3.71899e-15 2.30834e-15 0)
(-8.97687e-16 0 0)
(0 0 0)
(0 1.28241e-16 0)
(0 3.84723e-16 0)
(8.97687e-16 6.41205e-16 0)
(5.12964e-16 2.30834e-15 0)
(-8.97687e-16 3.07778e-15 0)
(-5.12964e-16 0 0)
(8.97687e-16 1.28241e-16 0)
(8.97687e-16 -3.20602e-16 0)
(0 -1.92361e-16 0)
(2.60136e-16 6.5034e-17 0)
(7.80408e-15 0 0)
(4.03211e-15 -6.5034e-17 0)
(9.10475e-16 0 0)
(-2.73143e-15 -3.90204e-16 0)
(-6.37333e-15 -1.69088e-15 0)
(-1.17061e-15 0 0)
(6.37333e-15 -3.2517e-16 0)
(-3.90204e-16 -1.30068e-16 0)
(-7.02367e-15 0 0)
(1.30068e-15 -1.30068e-16 0)
(7.2838e-15 -1.30068e-16 0)
(-1.56082e-15 -1.30068e-16 0)
(-1.82095e-15 6.5034e-17 0)
(2.60136e-16 -4.55238e-16 0)
(-7.15374e-15 -1.95102e-16 0)
(4.42231e-15 0 0)
(1.30068e-16 0 0)
(-4.03211e-15 0 0)
(2.60136e-16 0 0)
(-2.60136e-16 -4.55238e-16 0)
(-5.20272e-16 0 0)
(4.42231e-15 -2.60136e-16 0)
(1.30068e-16 -6.5034e-17 0)
(-4.29224e-15 0 0)
(-2.60136e-16 6.5034e-17 0)
(3.2517e-15 0 0)
(5.20272e-15 -6.5034e-17 0)
(-3.38177e-15 -1.75592e-15 0)
(-1.82095e-15 0 0)
(0 -6.5034e-17 0)
(-3.2517e-15 -1.30068e-16 0)
(0 0 0)
(7.15374e-15 0 0)
(3.12163e-15 -1.75592e-15 0)
(-7.02367e-15 -2.60136e-16 0)
(2.60136e-16 -3.2517e-16 0)
(-2.60136e-16 -2.60136e-16 0)
(1.82095e-15 -3.2517e-16 0)
(5.20272e-15 -2.60136e-16 0)
(-5.20272e-15 -1.75592e-15 0)
(-5.07265e-15 -3.2517e-16 0)
(3.51183e-15 0 0)
(-2.60136e-16 0 0)
(-3.2517e-15 0 0)
(6.8936e-15 0 0)
(0 -3.90204e-16 0)
(-6.8936e-15 0 0)
(0 0 0)
(0 0 0)
(0 0 0)
(0 0 0)
(0 0 0)
(7.80408e-16 0 0)
(0 0 0)
(-7.80408e-16 0 0)
(-1.30068e-16 0 0)
(-2.60136e-16 -3.90204e-16 0)
(0 0 0)
(9.10475e-16 0 0)
(2.47129e-15 0 0)
(-9.10475e-16 0 0)
(-2.47129e-15 0 0)
(0 -1.30068e-15 0)
(2.60136e-16 0 0)
(9.10475e-16 0 0)
(0 0 0)
(-9.10475e-16 3.2517e-16 0)
(-2.60136e-16 -3.2517e-16 0)
(0 0 0)
(0 -1.30068e-15 0)
(7.2838e-15 -1.30068e-15 0)
(0 -4.55238e-16 0)
(-6.8936e-15 -3.2517e-16 0)
(7.80408e-16 -6.5034e-17 0)
(0 -6.5034e-17 0)
(-9.10475e-16 0 0)
(-2.60136e-16 -3.90204e-16 0)
(9.10475e-16 7.80408e-16 0)
(7.2838e-15 3.2517e-16 0)
(-9.10475e-16 -6.5034e-17 0)
(-7.02367e-15 0 0)
(-2.60136e-16 6.5034e-17 0)
(2.47129e-15 3.2517e-16 0)
(7.2838e-15 0 0)
(0 -2.60136e-16 0)
(-6.37333e-15 -3.2517e-16 0)
(4.81251e-15 -1.23565e-15 0)
(-9.10475e-16 -4.55238e-16 0)
(-7.2838e-15 0 0)
(2.60136e-16 0 0)
(9.10475e-16 0 0)
(1.56082e-15 0 0)
(6.11319e-15 -6.5034e-17 0)
(7.2838e-15 -4.55238e-16 0)
(-7.2838e-15 -2.60136e-16 0)
(-8.58448e-15 0 0)
(0 0 0)
(1.30068e-16 -3.90204e-16 0)
(5.20272e-16 -3.2517e-16 0)
(-1.31921e-16 -6.59605e-17 0)
(-5.27684e-16 0 0)
(0 -2.96822e-15 0)
(2.63842e-16 -1.51709e-15 0)
(-2.63842e-16 -3.23206e-15 0)
(-2.63842e-16 -5.93644e-16 0)
(0 -8.57486e-16 0)
(0 -1.97881e-16 0)
(0 -3.29802e-15 0)
(0 6.59605e-17 0)
(0 -5.93644e-16 0)
(0 0 0)
(2.63842e-16 -3.29802e-15 0)
(0 -6.59605e-17 0)
(0 -2.5065e-15 0)
(0 0 0)
(-2.63842e-16 0 0)
(0 -1.31921e-15 0)
(0 -6.59605e-17 0)
(2.63842e-16 -1.97881e-16 0)
(0 -1.97881e-16 0)
(-2.63842e-16 0 0)
(0 -1.31921e-16 0)
(0 -1.58305e-15 0)
(2.63842e-16 -6.59605e-17 0)
(0 0 0)
(-2.63842e-16 0 0)
(0 -1.31921e-15 0)
(0 -1.84689e-15 0)
(0 0 0)
(0 -1.31921e-15 0)
(0 0 0)
(0 0 0)
(0 0 0)
(0 -2.37458e-15 0)
(0 -1.31921e-15 0)
(0 0 0)
(0 -1.18729e-15 0)
(0 0 0)
(0 -1.84689e-15 0)
(0 -1.84689e-15 0)
(0 0 0)
(0 0 0)
(0 -1.18729e-15 0)
(0 -1.31921e-16 0)
(0 0 0)
(0 -2.63842e-15 0)
(0 -2.63842e-16 0)
(0 0 0)
(0 2.63842e-16 0)
(0 0 0)
(0 0 0)
(0 6.59605e-17 0)
(0 0 0)
(0 -1.97881e-16 0)
(0 0 0)
(0 1.31921e-16 0)
(0 1.31921e-16 0)
(0 1.97881e-16 0)
(0 1.31921e-16 0)
(0 -1.97881e-16 0)
(0 -8.57486e-16 0)
(0 1.31921e-16 0)
(0 1.31921e-16 0)
(0 1.97881e-16 0)
(0 0 0)
(9.23446e-16 -1.97881e-16 0)
(3.42994e-15 0 0)
(-9.23446e-16 -1.31921e-16 0)
(-3.42994e-15 1.31921e-16 0)
(0 1.97881e-16 0)
(0 1.31921e-16 0)
(0 -2.5065e-15 0)
(0 6.59605e-17 0)
(0 0 0)
(0 -2.63842e-16 0)
(0 0 0)
(2.5065e-15 1.31921e-16 0)
(4.35339e-15 1.31921e-16 0)
(-2.5065e-15 -2.63842e-16 0)
(-4.35339e-15 -2.5065e-15 0)
(0 0 0)
(1.58305e-15 0 0)
(9.23446e-16 6.59605e-17 0)
(-1.58305e-15 -8.57486e-16 0)
(-9.23446e-16 -2.44054e-15 0)
(0 -8.57486e-16 0)
(0 -1.97881e-16 0)
(0 -2.5065e-15 0)
(0 1.97881e-16 0)
(0 1.31921e-16 0)
(0 0 0)
(0 -3.95763e-16 0)
(0 -5.93644e-16 0)
(0 -2.5065e-15 0)
(0 -3.29802e-15 0)
(0 0 0)
(0 -1.31921e-16 0)
(0 1.31921e-16 0)
(0 0 0)
(4.01401e-16 -2.007e-16 0)
(0 2.20771e-15 0)
(0 9.36602e-16 0)
(0 2.20771e-15 0)
(-4.01401e-16 2.20771e-15 0)
(1.338e-16 1.7394e-15 0)
(2.67601e-16 3.61261e-15 0)
(-2.67601e-16 3.34501e-16 0)
(2.67601e-16 3.34501e-16 0)
(0 3.61261e-15 0)
(9.36602e-16 3.34501e-16 0)
(0 0 0)
(-1.338e-15 4.01401e-16 0)
(1.338e-16 2.67601e-16 0)
(2.67601e-16 1.6725e-15 0)
(0 2.007e-16 0)
(6.69002e-16 9.36602e-16 0)
(0 1.6725e-15 0)
(-9.36602e-16 9.36602e-16 0)
(0 0 0)
(2.67601e-16 0 0)
(-2.67601e-16 2.67601e-16 0)
(0 0 0)
(2.67601e-16 6.69002e-17 0)
(0 0 0)
(0 -6.69002e-17 0)
(-2.67601e-16 0 0)
(0 0 0)
(2.67601e-16 1.338e-15 0)
(-2.67601e-16 6.69002e-17 0)
(0 1.338e-16 0)
(2.67601e-16 0 0)
(0 0 0)
(4.01401e-16 6.69002e-17 0)
(-1.338e-16 0 0)
(-5.35201e-16 0 0)
(2.67601e-16 0 0)
(0 0 0)
(0 6.69002e-17 0)
(0 0 0)
(0 6.69002e-17 0)
(0 6.69002e-17 0)
(0 3.61261e-15 0)
(-2.67601e-16 0 0)
(0 0 0)
(0 0 0)
(-6.69002e-16 0 0)
(2.67601e-16 0 0)
(1.338e-15 4.68301e-16 0)
(0 1.6725e-15 0)
(-6.69002e-16 3.34501e-16 0)
(2.67601e-16 0 0)
(0 0 0)
(0 3.34501e-16 0)
(0 3.34501e-16 0)
(1.338e-16 3.34501e-16 0)
(0 3.34501e-16 0)
(-1.338e-16 0 0)
(0 0 0)
(0 6.69002e-17 0)
(0 0 0)
(-2.67601e-16 0 0)
(0 0 0)
(2.67601e-16 0 0)
(0 8.69702e-16 0)
(0 1.338e-15 0)
(0 8.69702e-16 0)
(-5.35201e-16 -2.67601e-16 0)
(0 -9.36602e-16 0)
(5.35201e-16 0 0)
(0 0 0)
(-2.67601e-16 0 0)
(2.67601e-16 0 0)
(0 0 0)
(-2.67601e-16 0 0)
(0 6.69002e-17 0)
(0 0 0)
(2.67601e-16 -2.67601e-16 0)
(0 -9.36602e-16 0)
(-2.67601e-16 -1.6056e-15 0)
(0 0 0)
(-2.67601e-16 3.34501e-16 0)
(2.67601e-16 0 0)
(2.67601e-16 -6.02101e-16 0)
(0 -3.34501e-16 0)
(0 -2.007e-16 0)
(0 -2.007e-16 0)
(0 -2.007e-16 0)
(0 0 0)
(0 2.67601e-16 0)
(-2.67601e-16 6.69002e-17 0)
(-2.67601e-16 0 0)
(-1.338e-16 0 0)
(1.338e-16 1.338e-16 0)
(0 0 0)
(-1.338e-16 0 0)
(0 0 0)
(1.338e-16 0 0)
(5.35201e-16 -1.338e-16 0)
(1.338e-16 0 0)
(6.10679e-15 -6.78532e-17 0)
(2.57842e-15 -1.35706e-16 0)
(0 0 0)
(3.52837e-15 -1.35706e-16 0)
(-1.49277e-15 0 0)
(3.39266e-15 -2.71413e-16 0)
(-3.66408e-15 -1.35706e-16 0)
(-8.68521e-15 -6.78532e-17 0)
(8.68521e-15 -6.10679e-16 0)
(0 -2.0356e-16 0)
(-9.36375e-15 0 0)
(0 -5.42826e-16 0)
(6.78532e-16 -2.71413e-16 0)
(3.66408e-15 -6.10679e-16 0)
(-1.35706e-16 -1.35706e-16 0)
(-2.1713e-15 -1.35706e-16 0)
(3.93549e-15 -6.78532e-17 0)
(0 -6.10679e-16 0)
(-4.61402e-15 -6.78532e-17 0)
(-2.1713e-15 -5.42826e-16 0)
(6.78532e-16 -2.0356e-16 0)
(-2.71413e-16 -1.35706e-16 0)
(-4.07119e-16 0 0)
(0 -6.78532e-17 0)
(-2.71413e-16 -1.35706e-16 0)
(0 -6.78532e-16 0)
(0 -1.35706e-16 0)
(3.66408e-15 -5.42826e-16 0)
(0 -1.35706e-16 0)
(-3.25696e-15 -6.78532e-17 0)
(-1.35706e-16 -6.10679e-16 0)
(-2.71413e-16 -1.35706e-16 0)
(2.71413e-16 -6.78532e-16 0)
(0 -6.78532e-16 0)
(-2.71413e-16 -2.71413e-16 0)
(0 -5.42826e-16 0)
(0 -1.35706e-16 0)
(2.71413e-16 -6.78532e-16 0)
(0 -6.78532e-17 0)
(0 -6.78532e-16 0)
(1.35706e-16 -6.78532e-17 0)
(9.36375e-15 -6.78532e-17 0)
(-2.71413e-16 -7.46386e-16 0)
(-9.49945e-15 -1.35706e-16 0)
(0 0 0)
(0 -6.78532e-16 0)
(0 0 0)
(1.35706e-15 -4.07119e-16 0)
(4.61402e-15 -6.78532e-16 0)
(-5.42826e-16 -9.49945e-16 0)
(-4.47831e-15 -6.78532e-16 0)
(-9.49945e-16 -6.78532e-16 0)
(9.49945e-16 -7.46386e-16 0)
(8.14239e-16 -6.78532e-17 0)
(0 -7.46386e-16 0)
(0 -6.78532e-16 0)
(-8.14239e-16 -3.39266e-16 0)
(-9.49945e-16 -6.78532e-16 0)
(2.71413e-16 -7.46386e-16 0)
(0 -6.78532e-17 0)
(-2.71413e-16 -7.46386e-16 0)
(0 -6.78532e-16 0)
(0 -2.0356e-16 0)
(2.30701e-15 -2.0356e-16 0)
(3.66408e-15 -2.71413e-16 0)
(0 -1.35706e-16 0)
(-3.52837e-15 -8.14239e-16 0)
(-1.35706e-15 -6.78532e-17 0)
(-1.35706e-16 -6.78532e-17 0)
(-9.49945e-16 -6.78532e-16 0)
(0 -2.0356e-16 0)
(0 -2.0356e-16 0)
(0 -1.35706e-16 0)
(0 -2.0356e-16 0)
(2.71413e-16 -1.35706e-16 0)
(0 -6.78532e-16 0)
(-9.49945e-16 -1.35706e-16 0)
(0 -6.78532e-17 0)
(6.78532e-16 -2.71413e-16 0)
(0 -1.35706e-16 0)
(9.49945e-16 -1.35706e-16 0)
(0 -1.35706e-16 0)
(-9.49945e-16 -5.42826e-16 0)
(0 -2.0356e-16 0)
(-4.07119e-16 -6.78532e-16 0)
(-5.42826e-16 -7.46386e-16 0)
(0 -6.78532e-17 0)
(5.42826e-16 -7.46386e-16 0)
(1.08565e-15 -6.78532e-16 0)
(2.71413e-16 -2.0356e-16 0)
(-6.78532e-16 -6.78532e-16 0)
(-2.71413e-16 -1.35706e-16 0)
(2.71413e-16 -1.96774e-15 0)
(0 -1.35706e-16 0)
(-2.71413e-16 -1.35706e-16 0)
(0 0 0)
(0 -6.78532e-17 0)
(-2.71413e-16 0 0)
(0 -6.78532e-17 0)
(2.71413e-16 -2.0356e-16 0)
(1.3764e-16 0 0)
(2.7528e-16 -2.33988e-15 0)
(0 -8.94659e-16 0)
(0 -2.4087e-15 0)
(-6.88199e-16 -2.4087e-15 0)
(0 -1.58286e-15 0)
(6.88199e-16 -3.71627e-15 0)
(-1.3764e-15 -3.441e-16 0)
(-2.7528e-16 -1.3764e-16 0)
(1.65168e-15 -3.50982e-15 0)
(0 -3.441e-16 0)
(-6.88199e-16 1.3764e-16 0)
(-1.65168e-15 -2.7528e-16 0)
(6.88199e-16 -6.19379e-16 0)
(1.3764e-15 -1.78932e-15 0)
(2.7528e-16 -2.7528e-16 0)
(-6.88199e-16 -1.0323e-15 0)
(0 -1.58286e-15 0)
(-9.63479e-16 -1.0323e-15 0)
(0 6.88199e-17 0)
(1.3764e-15 -6.88199e-17 0)
(2.7528e-16 -1.3764e-16 0)
(0 1.3764e-16 0)
(0 -1.3764e-16 0)
(-1.65168e-15 -1.3764e-16 0)
(2.7528e-16 6.88199e-17 0)
(0 0 0)
(0 6.88199e-17 0)
(1.3764e-15 -1.3764e-15 0)
(-1.3764e-15 -1.3764e-16 0)
(-2.7528e-16 0 0)
(2.7528e-16 0 0)
(-1.65168e-15 6.88199e-17 0)
(1.65168e-15 -2.0646e-16 0)
(0 0 0)
(0 -1.3764e-16 0)
(0 -2.0646e-15 0)
(-2.7528e-16 6.88199e-17 0)
(2.7528e-16 -1.3764e-16 0)
(0 6.88199e-17 0)
(1.3764e-15 -1.3764e-16 0)
(-1.3764e-15 -3.441e-16 0)
(-2.7528e-16 -4.26683e-15 0)
(1.65168e-15 0 0)
(-1.65168e-15 0 0)
(2.7528e-16 6.88199e-17 0)
(0 1.3764e-16 0)
(-1.65168e-15 -6.19379e-16 0)
(0 -4.12919e-16 0)
(0 -1.65168e-15 0)
(0 -4.81739e-16 0)
(0 -2.0646e-15 0)
(1.65168e-15 6.88199e-17 0)
(0 -4.12919e-16 0)
(-1.65168e-15 -9.63479e-16 0)
(1.23876e-15 -2.4087e-15 0)
(1.3764e-16 -3.441e-16 0)
(-1.3764e-15 6.88199e-17 0)
(1.65168e-15 0 0)
(0 -6.88199e-16 0)
(-1.65168e-15 1.3764e-16 0)
(1.23876e-15 6.88199e-17 0)
(1.3764e-15 0 0)
(0 -2.13342e-15 0)
(1.3764e-16 -8.94659e-16 0)
(-1.10112e-15 -1.3764e-15 0)
(0 -7.57019e-16 0)
(1.10112e-15 -1.3764e-16 0)
(-1.3764e-15 -3.441e-16 0)
(0 -2.0646e-15 0)
(1.3764e-15 0 0)
(0 0 0)
(2.7528e-16 0 0)
(0 -2.0646e-15 0)
(-1.3764e-15 -6.88199e-17 0)
(0 0 0)
(1.3764e-15 0 0)
(-2.7528e-16 2.0646e-16 0)
(0 -2.13342e-15 0)
(2.7528e-16 -6.88199e-17 0)
(0 0 0)
(-1.3764e-15 -9.63479e-16 0)
(0 6.88199e-17 0)
(-2.7528e-16 0 0)
(-1.3764e-15 6.88199e-17 0)
(1.65168e-15 -1.85814e-15 0)
(0 0 0)
(-1.65168e-15 2.7528e-16 0)
(1.65168e-15 6.88199e-17 0)
(-2.7528e-16 -2.7528e-16 0)
(2.7528e-16 0 0)
(-3.57864e-15 -6.88199e-17 0)
(-2.7528e-16 2.0646e-16 0)
(4.95503e-15 0 0)
(2.7528e-16 0 0)
(-2.7528e-16 0 0)
(0 0 0)
(2.7528e-16 -2.0646e-15 0)
(0 6.88199e-17 0)
(0 -6.88199e-17 0)
(1.39601e-16 6.98003e-17 0)
(2.79201e-16 -6.98003e-17 0)
(-2.79201e-16 0 0)
(-1.39601e-16 0 0)
(4.18802e-16 0 0)
(0 2.79201e-16 0)
(-4.18802e-16 -2.09401e-16 0)
(1.39601e-16 0 0)
(5.58403e-16 4.88602e-16 0)
(-2.79201e-16 0 0)
(0 -6.98003e-17 0)
(2.79201e-16 0 0)
(-1.39601e-15 2.79201e-16 0)
(-2.79201e-16 2.79201e-16 0)
(9.77205e-16 2.09401e-16 0)
(0 -2.09401e-16 0)
(4.18802e-16 -2.09401e-16 0)
(0 2.09401e-16 0)
(-4.18802e-16 0 0)
(0 4.18802e-16 0)
(1.39601e-16 6.98003e-17 0)
(2.79201e-16 0 0)
(-2.79201e-16 -2.79201e-16 0)
(-5.58403e-16 0 0)
(0 -6.98003e-17 0)
(4.18802e-16 4.88602e-16 0)
(0 0 0)
(0 4.88602e-16 0)
(0 0 0)
(0 0 0)
(0 4.88602e-16 0)
(0 0 0)
(-4.18802e-16 4.88602e-16 0)
(0 5.58403e-16 0)
(0 0 0)
(-5.58403e-15 2.79201e-16 0)
(5.58403e-16 6.98003e-17 0)
(5.44443e-15 4.88602e-16 0)
(0 0 0)
(0 2.79201e-16 0)
(-6.98003e-16 0 0)
(-1.67521e-15 -1.39601e-16 0)
(5.58403e-16 6.28203e-16 0)
(1.81481e-15 0 0)
(0 0 0)
(1.39601e-16 4.88602e-16 0)
(-1.53561e-15 0 0)
(-2.79201e-16 6.28203e-16 0)
(1.67521e-15 4.88602e-16 0)
(-4.18802e-16 4.88602e-16 0)
(-5.58403e-15 2.79201e-16 0)
(5.58403e-16 6.28203e-16 0)
(5.44443e-15 2.79201e-16 0)
(-1.81481e-15 -2.09401e-16 0)
(-5.30483e-15 6.28203e-16 0)
(1.81481e-15 6.28203e-16 0)
(5.30483e-15 6.98003e-17 0)
(-2.79201e-16 4.88602e-16 0)
(-1.53561e-15 4.88602e-16 0)
(4.18802e-16 -2.09401e-16 0)
(1.53561e-15 5.58403e-16 0)
(-1.39601e-16 4.88602e-16 0)
(-5.44443e-15 6.98003e-17 0)
(0 2.09401e-16 0)
(5.44443e-15 -1.39601e-16 0)
(0 0 0)
(0 4.88602e-16 0)
(0 -2.09401e-16 0)
(-5.44443e-15 -6.98003e-17 0)
(0 -2.51281e-15 0)
(5.44443e-15 0 0)
(0 -6.98003e-17 0)
(-5.30483e-15 -2.09401e-16 0)
(-4.18802e-16 6.98003e-17 0)
(5.44443e-15 0 0)
(2.79201e-16 4.88602e-16 0)
(0 -6.98003e-16 0)
(-5.44443e-15 -1.39601e-16 0)
(0 1.39601e-16 0)
(5.16523e-15 0 0)
(-1.39601e-15 0 0)
(2.79201e-16 1.39601e-16 0)
(1.39601e-15 3.49002e-16 0)
(0 -6.98003e-16 0)
(-5.44443e-15 4.18802e-16 0)
(-5.58403e-16 4.18802e-16 0)
(5.58403e-15 -6.98003e-17 0)
(4.18802e-16 1.39601e-16 0)
(0 -2.30341e-15 0)
(0 -6.98003e-17 0)
(-2.79201e-16 4.88602e-16 0)
(2.79201e-16 0 0)
(4.18802e-16 1.67521e-15 0)
(-2.79201e-16 -9.07404e-16 0)
(-1.39601e-16 0 0)
(0 -1.39601e-16 0)
(-5.44443e-15 -6.98003e-17 0)
(0 -2.79201e-15 0)
(5.16523e-15 0 0)
(-1.39601e-16 0 0)
(-1.41589e-16 0 0)
(0 -4.31848e-15 0)
(1.41589e-16 -7.78742e-16 0)
(0 -1.3451e-15 0)
(0 -1.3451e-15 0)
(-5.66358e-16 -1.91146e-15 0)
(0 -2.12384e-16 0)
(5.66358e-16 0 0)
(0 -1.76987e-15 0)
(-1.41589e-16 -1.91146e-15 0)
(0 -2.90258e-15 0)
(1.41589e-16 -2.05305e-15 0)
(-5.66358e-16 -1.41589e-16 0)
(1.41589e-16 -4.24768e-16 0)
(0 -4.38927e-15 0)
(-8.49537e-16 0 0)
(4.24768e-16 -7.78742e-16 0)
(7.07947e-16 -1.98225e-15 0)
(0 0 0)
(0 -7.07947e-16 0)
(1.41589e-16 -1.76987e-15 0)
(-5.66358e-16 -1.84066e-15 0)
(0 -8.49537e-16 0)
(4.24768e-16 -7.07947e-16 0)
(0 -5.66358e-16 0)
(1.41589e-16 -1.41589e-16 0)
(0 -1.41589e-16 0)
(0 -1.69907e-15 0)
(0 -1.41589e-16 0)
(0 -1.69907e-15 0)
(0 0 0)
(0 -1.41589e-16 0)
(0 -1.41589e-16 0)
(0 0 0)
(-5.66358e-16 -3.61053e-15 0)
(0 7.07947e-17 0)
(5.66358e-16 1.91146e-15 0)
(0 -7.07947e-17 0)
(-5.66358e-16 0 0)
(0 -1.41589e-16 0)
(4.24768e-16 -3.61053e-15 0)
(0 2.83179e-16 0)
(1.41589e-16 3.53974e-16 0)
(0 -1.69907e-15 0)
(0 0 0)
(0 -1.41589e-16 0)
(0 -3.75212e-15 0)
(0 4.24768e-16 0)
(0 0 0)
(-5.66358e-16 -1.69907e-15 0)
(0 2.12384e-16 0)
(0 2.19464e-15 0)
(-7.07947e-16 0 0)
(7.07947e-16 -1.76987e-15 0)
(5.66358e-16 5.66358e-16 0)
(0 1.84066e-15 0)
(0 -2.83179e-16 0)
(0 -1.41589e-16 0)
(-5.66358e-16 0 0)
(0 -1.91146e-15 0)
(5.66358e-16 -2.12384e-16 0)
(0 0 0)
(0 0 0)
(-5.66358e-16 2.05305e-15 0)
(0 0 0)
(5.66358e-16 -2.12384e-16 0)
(-5.66358e-16 1.41589e-16 0)
(-5.66358e-16 2.12384e-16 0)
(-6.93788e-15 0 0)
(4.24768e-16 1.98225e-15 0)
(7.22106e-15 1.41589e-16 0)
(-7.07947e-16 -2.12384e-16 0)
(5.66358e-16 -3.25656e-15 0)
(5.66358e-16 1.91146e-15 0)
(0 0 0)
(-1.84066e-15 1.41589e-16 0)
(-4.24768e-16 1.41589e-16 0)
(1.69907e-15 0 0)
(4.24768e-16 2.12384e-15 0)
(1.41589e-16 -1.62828e-15 0)
(0 0 0)
(-4.24768e-16 2.12384e-16 0)
(-1.55748e-15 0 0)
(1.41589e-16 1.41589e-16 0)
(1.27431e-15 -2.40702e-15 0)
(0 1.91146e-15 0)
(-5.66358e-16 -2.61941e-15 0)
(-6.93788e-15 0 0)
(8.49537e-16 7.07947e-17 0)
(7.07947e-15 0 0)
(1.41589e-16 0 0)
(-5.66358e-16 0 0)
(-2.54861e-15 -7.07947e-17 0)
(7.07947e-16 -7.07947e-17 0)
(1.98225e-15 1.41589e-16 0)
(-4.24768e-16 2.83179e-16 0)
(-6.7963e-15 0 0)
(7.07947e-16 2.19464e-15 0)
(6.93788e-15 0 0)
(0 7.07947e-17 0)
(-1.04833e-14 0 0)
(-1.72328e-15 1.43607e-16 0)
(7.18033e-15 7.18033e-17 0)
(-1.57967e-15 7.18033e-17 0)
(-1.14885e-15 7.18033e-17 0)
(3.01574e-15 0 0)
(4.3082e-15 2.87213e-16 0)
(-3.87738e-15 0 0)
(-4.3082e-15 0 0)
(-3.01574e-15 0 0)
(-1.43607e-16 1.43607e-16 0)
(7.18033e-15 1.43607e-16 0)
(2.72853e-15 0 0)
(-1.06269e-14 4.3082e-16 0)
(1.57967e-15 0 0)
(9.04722e-15 3.59017e-16 0)
(-4.45181e-15 9.33443e-16 0)
(1.72328e-15 7.18033e-17 0)
(2.72853e-15 0 0)
(-4.45181e-15 2.1541e-16 0)
(-2.58492e-15 1.43607e-16 0)
(2.72853e-15 0 0)
(2.72853e-15 5.02623e-16 0)
(0 7.18033e-17 0)
(1.43607e-15 2.1541e-16 0)
(1.14885e-15 0 0)
(-3.87738e-15 0 0)
(0 0 0)
(0 0 0)
(4.3082e-16 0 0)
(3.87738e-15 0 0)
(-4.3082e-16 0 0)
(0 0 0)
(-8.47279e-15 0 0)
(0 7.18033e-17 0)
(8.6164e-15 2.87213e-16 0)
(0 0 0)
(5.74427e-16 0 0)
(0 0 0)
(-8.90361e-15 2.87213e-16 0)
(0 7.18033e-17 0)
(8.32918e-15 7.18033e-17 0)
(-4.3082e-15 0 0)
(7.18033e-16 2.1541e-16 0)
(3.87738e-15 0 0)
(-9.04722e-15 0 0)
(0 7.18033e-17 0)
(9.04722e-15 0 0)
(-3.87738e-15 0 0)
(0 0 0)
(4.59541e-15 2.1541e-16 0)
(0 0 0)
(-4.59541e-15 2.1541e-16 0)
(0 2.87213e-16 0)
(3.59017e-15 0 0)
(-5.74427e-16 0 0)
(1.43607e-16 0 0)
(4.3082e-16 0 0)
(-5.60066e-15 0 0)
(0 2.87213e-16 0)
(6.17508e-15 0 0)
(1.43607e-16 2.1541e-16 0)
(0 0 0)
(0 2.1541e-16 0)
(-7.18033e-16 2.1541e-16 0)
(2.87213e-16 0 0)
(1.29246e-15 0 0)
(-1.43607e-16 5.02623e-16 0)
(-1.14885e-15 1.43607e-16 0)
(2.87213e-16 3.15935e-15 0)
(0 0 0)
(-8.47279e-15 2.87213e-16 0)
(0 3.59017e-16 0)
(7.89836e-15 0 0)
(7.18033e-16 0 0)
(2.87213e-16 0 0)
(-2.87213e-16 5.74427e-16 0)
(2.87213e-16 1.43607e-16 0)
(-4.3082e-15 1.43607e-16 0)
(-2.87213e-16 3.30295e-15 0)
(3.59017e-15 0 0)
(0 0 0)
(7.18033e-16 1.43607e-16 0)
(-6.17508e-15 5.74427e-16 0)
(-4.3082e-16 7.18033e-17 0)
(-7.18033e-16 2.1541e-16 0)
(2.87213e-16 1.43607e-16 0)
(7.03672e-15 3.59017e-16 0)
(0 2.80033e-15 0)
(0 7.18033e-17 0)
(-1.43607e-16 0 0)
(0 7.18033e-17 0)
(1.43607e-16 2.1541e-16 0)
(2.87213e-16 1.00525e-15 0)
(5.74427e-16 0 0)
(-1.43607e-16 4.3082e-16 0)
(-7.18033e-16 1.43607e-16 0)
(0 3.01574e-15 0)
(0 4.3082e-16 0)
(0 1.43607e-16 0)
(0 -2.91305e-16 0)
(0 4.00544e-15 0)
(0 5.09784e-16 0)
(0 1.16522e-15 0)
(0 8.01089e-16 0)
(0 1.74783e-15 0)
(0 -7.28263e-16 0)
(0 -2.18479e-16 0)
(0 1.52935e-15 0)
(0 1.23805e-15 0)
(1.45653e-16 2.69457e-15 0)
(0 1.82066e-15 0)
(-1.45653e-16 0 0)
(0 7.28263e-17 0)
(1.45653e-16 4.29675e-15 0)
(1.45653e-15 0 0)
(0 6.55436e-16 0)
(-1.60218e-15 1.82066e-15 0)
(0 -5.09784e-16 0)
(4.36958e-16 7.28263e-17 0)
(0 1.60218e-15 0)
(-2.91305e-16 1.23805e-15 0)
(0 7.28263e-17 0)
(-1.45653e-16 6.55436e-16 0)
(0 5.8261e-16 0)
(0 -3.64131e-16 0)
(0 1.45653e-16 0)
(0 1.23805e-15 0)
(0 -3.64131e-16 0)
(0 8.73915e-16 0)
(0 -2.18479e-16 0)
(0 -3.64131e-16 0)
(0 1.45653e-16 0)
(0 -7.28263e-17 0)
(0 3.13153e-15 0)
(0 -1.45653e-16 0)
(0 1.45653e-16 0)
(0 -7.28263e-17 0)
(0 0 0)
(0 -1.45653e-16 0)
(0 3.42283e-15 0)
(0 -1.23805e-15 0)
(4.36958e-16 2.18479e-16 0)
(0 1.74783e-15 0)
(-4.36958e-16 -8.73915e-16 0)
(0 -7.28263e-17 0)
(0 3.42283e-15 0)
(0 -1.09239e-15 0)
(0 -5.09784e-16 0)
(0 1.74783e-15 0)
(0 0 0)
(0 -6.55436e-16 0)
(0 -5.09784e-16 0)
(0 1.23805e-15 0)
(0 -5.09784e-16 0)
(0 -2.91305e-16 0)
(0 -7.28263e-17 0)
(0 1.45653e-16 0)
(0 -4.36958e-16 0)
(0 2.47609e-15 0)
(4.36958e-16 -7.28263e-17 0)
(0 -5.8261e-16 0)
(0 0 0)
(0 0 0)
(-4.36958e-16 0 0)
(0 2.18479e-16 0)
(4.36958e-16 -1.45653e-16 0)
(0 -2.91305e-16 0)
(-4.36958e-16 -3.64131e-16 0)
(0 1.45653e-16 0)
(1.45653e-16 -6.55436e-16 0)
(2.91305e-16 0 0)
(-2.91305e-16 3.35001e-15 0)
(-1.45653e-16 1.45653e-16 0)
(0 -1.45653e-16 0)
(0 -6.55436e-16 0)
(0 0 0)
(0 0 0)
(8.15654e-15 -6.55436e-16 0)
(0 1.60218e-15 0)
(-8.15654e-15 0 0)
(0 2.91305e-16 0)
(0 0 0)
(0 -5.09784e-16 0)
(0 2.47609e-15 0)
(0 0 0)
(0 2.7674e-15 0)
(0 -1.45653e-16 0)
(0 -5.09784e-16 0)
(0 5.09784e-16 0)
(1.45653e-16 -1.45653e-16 0)
(0 1.45653e-16 0)
(-1.45653e-16 5.09784e-16 0)
(0 -3.64131e-16 0)
(5.8261e-16 -1.45653e-16 0)
(0 -8.01089e-16 0)
(-1.45653e-16 0 0)
(8.73915e-16 0 0)
(-1.45653e-16 -2.18479e-16 0)
(-7.28263e-16 -5.8261e-16 0)
(0 0 0)
(2.95455e-16 -3.69319e-16 0)
(0 -4.43183e-16 0)
(-8.86365e-16 -3.69319e-16 0)
(4.43183e-16 -6.64774e-16 0)
(-8.86365e-16 0 0)
(-4.43183e-16 -2.21591e-15 0)
(1.77273e-15 -8.86365e-16 0)
(-8.86365e-16 -6.64774e-16 0)
(0 -7.38638e-17 0)
(1.32955e-15 -1.84659e-15 0)
(4.43183e-16 -4.43183e-16 0)
(-1.32955e-15 -2.21591e-16 0)
(-2.95455e-16 -3.69319e-16 0)
(1.47728e-15 -7.38638e-16 0)
(1.47728e-16 -5.17046e-16 0)
(0 -1.18182e-15 0)
(-1.32955e-15 -7.38638e-16 0)
(-1.32955e-15 -7.38638e-17 0)
(8.86365e-16 0 0)
(-2.95455e-16 -1.47728e-16 0)
(-5.9091e-16 -1.84659e-15 0)
(1.32955e-15 -1.47728e-16 0)
(1.32955e-15 -7.38638e-17 0)
(-1.32955e-15 0 0)
(0 -6.64774e-16 0)
(0 -5.9091e-16 0)
(-1.32955e-15 0 0)
(-1.03409e-15 -3.69319e-16 0)
(7.38638e-16 -3.69319e-16 0)
(8.86365e-16 0 0)
(7.38638e-16 -6.64774e-16 0)
(7.38638e-16 -2.21591e-16 0)
(-1.47728e-15 0 0)
(0 -3.69319e-16 0)
(1.47728e-15 -9.60229e-16 0)
(1.47728e-16 -2.21591e-16 0)
(0 -2.21591e-16 0)
(-1.47728e-16 -2.21591e-16 0)
(-5.9091e-16 -2.21591e-16 0)
(-2.51137e-15 -8.12501e-16 0)
(7.38638e-16 -5.9091e-16 0)
(2.95455e-15 -4.43183e-16 0)
(-2.21591e-15 -2.21591e-16 0)
(-7.38638e-16 -3.69319e-16 0)
(1.77273e-15 -6.64774e-16 0)
(-2.51137e-15 -4.43183e-16 0)
(-5.9091e-16 7.38638e-17 0)
(2.95455e-15 -6.64774e-16 0)
(1.32955e-15 -4.43183e-16 0)
(-1.32955e-15 -5.9091e-16 0)
(-1.32955e-15 -6.64774e-16 0)
(0 -7.38638e-17 0)
(0 -9.60229e-16 0)
(0 -6.64774e-16 0)
(4.43183e-16 -2.95455e-16 0)
(1.32955e-15 -3.69319e-16 0)
(-4.43183e-16 -7.38638e-17 0)
(0 -1.55114e-15 0)
(8.86365e-16 -2.21591e-16 0)
(-1.32955e-15 -2.28978e-15 0)
(4.43183e-16 -5.17046e-16 0)
(1.32955e-15 -8.86365e-16 0)
(0 -2.95455e-16 0)
(0 -1.47728e-15 0)
(0 -2.21591e-16 0)
(0 -2.21591e-16 0)
(-8.86365e-16 -8.12501e-16 0)
(0 -3.69319e-16 0)
(-4.43183e-16 -3.69319e-16 0)
(-4.43183e-16 -2.95455e-16 0)
(1.32955e-15 -7.38638e-16 0)
(4.43183e-16 -1.47728e-16 0)
(-5.9091e-16 0 0)
(-1.47728e-15 0 0)
(7.38638e-16 -9.60229e-16 0)
(1.32955e-15 -2.21591e-16 0)
(-1.32955e-15 -2.21591e-16 0)
(-4.43183e-16 -9.60229e-16 0)
(1.32955e-15 -3.69319e-15 0)
(4.43183e-16 0 0)
(0 -7.38638e-17 0)
(-1.32955e-15 -2.21591e-16 0)
(0 -9.60229e-16 0)
(8.86365e-16 -7.38638e-17 0)
(0 -1.55114e-15 0)
(0 -2.21591e-16 0)
(-1.32955e-15 -6.64774e-16 0)
(1.625e-15 -7.38638e-17 0)
(8.86365e-16 -1.55114e-15 0)
(-1.18182e-15 -2.95455e-16 0)
(1.625e-15 -2.36364e-15 0)
(-8.86365e-16 -2.95455e-16 0)
(-1.18182e-15 -2.14205e-15 0)
(-4.43183e-16 -5.9091e-16 0)
(0 -5.9091e-16 0)
(1.32955e-15 -1.84659e-15 0)
(-4.43183e-16 -5.9091e-16 0)
(-1.32955e-15 -6.64774e-16 0)
(-8.86365e-16 -2.95455e-16 0)
(-8.98993e-16 2.99664e-16 0)
(-5.99328e-16 2.99664e-16 0)
(0 2.24748e-16 0)
(-4.49496e-16 7.49161e-17 0)
(8.98993e-16 5.24412e-16 0)
(-3.7458e-15 -7.49161e-17 0)
(-2.24748e-15 6.74244e-16 0)
(3.59597e-15 1.49832e-16 0)
(1.94782e-15 2.99664e-16 0)
(-2.99664e-15 4.49496e-16 0)
(-7.49161e-16 1.49832e-16 0)
(3.89563e-15 -2.24748e-16 0)
(0 -1.49832e-16 0)
(-1.19866e-15 5.24412e-16 0)
(0 7.49161e-17 0)
(5.99328e-16 -7.49161e-17 0)
(-1.04882e-15 7.49161e-17 0)
(1.19866e-15 0 0)
(1.79799e-15 1.49832e-16 0)
(0 5.24412e-16 0)
(-4.34513e-15 1.49832e-16 0)
(0 5.24412e-16 0)
(4.1953e-15 5.24412e-16 0)
(1.49832e-16 -7.49161e-17 0)
(-1.04882e-15 -3.7458e-16 0)
(-1.64815e-15 6.74244e-16 0)
(1.64815e-15 -8.98993e-16 0)
(4.49496e-16 1.49832e-16 0)
(-8.98993e-16 3.7458e-16 0)
(8.98993e-16 5.24412e-16 0)
(-4.49496e-16 -1.49832e-16 0)
(-7.49161e-16 6.74244e-16 0)
(1.34849e-15 -2.99664e-16 0)
(-1.49832e-16 -5.99328e-16 0)
(-2.39731e-15 0 0)
(2.99664e-16 -5.99328e-16 0)
(1.79799e-15 -1.49832e-16 0)
(0 2.24748e-16 0)
(0 0 0)
(-1.04882e-15 2.99664e-16 0)
(-1.19866e-15 -1.49832e-16 0)
(8.98993e-16 3.7458e-16 0)
(1.64815e-15 7.49161e-17 0)
(-2.99664e-16 -3.7458e-16 0)
(-1.34849e-15 8.98993e-16 0)
(2.99664e-16 3.7458e-16 0)
(1.34849e-15 -4.49496e-16 0)
(-4.49496e-16 1.12374e-15 0)
(-1.19866e-15 6.74244e-16 0)
(0 -8.24077e-16 0)
(-4.49496e-16 -2.99664e-16 0)
(1.19866e-15 5.99328e-16 0)
(-7.49161e-16 1.49832e-16 0)
(-1.19866e-15 5.99328e-16 0)
(1.64815e-15 5.99328e-16 0)
(4.49496e-16 5.99328e-16 0)
(4.49496e-16 7.49161e-17 0)
(-2.54715e-15 -3.7458e-16 0)
(-4.49496e-16 6.74244e-16 0)
(-1.79799e-15 -1.49832e-16 0)
(-1.49832e-16 -7.49161e-17 0)
(2.84681e-15 2.99664e-16 0)
(7.49161e-16 0 0)
(-1.19866e-15 0 0)
(-4.49496e-16 7.49161e-17 0)
(2.84681e-15 -1.49832e-16 0)
(-7.49161e-16 0 0)
(-4.49496e-16 -2.99664e-16 0)
(7.49161e-16 7.49161e-17 0)
(1.49832e-16 -7.49161e-17 0)
(-5.99328e-16 5.99328e-16 0)
(5.99328e-16 -7.49161e-17 0)
(1.64815e-15 -7.49161e-17 0)
(0 -7.49161e-17 0)
(-2.24748e-15 7.49161e-17 0)
(-7.49161e-16 2.99664e-16 0)
(1.64815e-15 0 0)
(-1.64815e-15 0 0)
(0 2.99664e-16 0)
(2.24748e-15 7.49161e-17 0)
(4.49496e-16 -7.49161e-17 0)
(-5.99328e-16 -2.99664e-16 0)
(-2.09765e-15 -1.49832e-16 0)
(4.49496e-16 4.49496e-16 0)
(-1.19866e-15 -7.49161e-17 0)
(-4.49496e-16 2.99664e-16 0)
(1.94782e-15 0 0)
(4.49496e-16 7.49161e-17 0)
(-1.94782e-15 5.24412e-16 0)
(-4.49496e-16 -7.49161e-16 0)
(-1.94782e-15 -1.49832e-16 0)
(1.49832e-16 -1.49832e-16 0)
(0 -5.99328e-16 0)
(-5.99328e-16 -2.99664e-16 0)
(4.49496e-15 -2.99664e-16 0)
(-3.14647e-15 5.99328e-16 0)
(-2.99664e-16 -2.99664e-16 0)
(3.89563e-15 -7.49161e-17 0)
(2.99664e-16 7.49161e-17 0)
(1.49832e-16 3.7458e-16 0)
(0 0 0)
(0 -6.8385e-16 0)
(-1.51967e-16 -6.8385e-16 0)
(-3.03933e-16 -5.62277e-15 0)
(0 -3.57122e-15 0)
(-4.559e-16 -5.09088e-15 0)
(3.03933e-16 -2.05155e-15 0)
(6.07867e-16 -4.1031e-15 0)
(-1.51967e-16 -3.57122e-15 0)
(0 -4.1031e-15 0)
(-3.03933e-16 -3.11532e-15 0)
(-4.559e-16 -4.71097e-15 0)
(7.59833e-16 -5.69875e-15 0)
(1.51967e-16 -1.89958e-15 0)
(-1.51967e-16 -1.51967e-15 0)
(0 -1.97557e-15 0)
(1.51967e-16 -1.3677e-15 0)
(-6.07867e-16 -6.23063e-15 0)
(0 -5.85072e-15 0)
(6.07867e-16 -2.2795e-15 0)
(-1.51967e-16 -2.20352e-15 0)
(0 -5.31883e-16 0)
(0 -2.20352e-15 0)
(-7.59833e-16 -2.2795e-15 0)
(0 -2.20352e-15 0)
(-1.06377e-15 -6.45858e-15 0)
(-7.59833e-16 -2.43147e-15 0)
(1.3677e-15 -3.79917e-15 0)
(0 -5.85072e-15 0)
(-1.51967e-16 -1.8236e-15 0)
(9.118e-16 0 0)
(0 -1.74762e-15 0)
(-2.12753e-15 -6.30662e-15 0)
(-4.559e-16 -2.35548e-15 0)
(0 -2.65942e-15 0)
(9.118e-16 -2.12753e-15 0)
(2.12753e-15 0 0)
(1.51967e-16 -2.12753e-15 0)
(0 -2.35548e-15 0)
(-1.3677e-15 -2.88737e-15 0)
(-1.8236e-15 -5.4708e-15 0)
(1.21573e-15 -1.67163e-15 0)
(1.06377e-15 -5.31883e-16 0)
(0 -6.91448e-15 0)
(9.118e-16 -6.61055e-15 0)
(-1.8236e-15 -5.9267e-15 0)
(0 -3.03933e-16 0)
(1.67163e-15 -2.35548e-15 0)
(-1.8236e-15 -3.79917e-16 0)
(-7.59833e-16 1.51967e-16 0)
(1.8236e-15 -2.05155e-15 0)
(0 -1.8236e-15 0)
(0 7.59833e-17 0)
(7.59833e-16 -1.67163e-15 0)
(0 -3.34327e-15 0)
(-4.559e-16 -3.6472e-15 0)
(-7.59833e-16 2.2795e-16 0)
(4.559e-16 -2.50745e-15 0)
(7.59833e-16 -1.59565e-15 0)
(-7.59833e-16 -3.57122e-15 0)
(-6.07867e-16 2.05155e-15 0)
(9.118e-16 -2.2795e-16 0)
(6.07867e-16 6.8385e-16 0)
(0 -3.79917e-15 0)
(-1.51967e-16 -1.59565e-15 0)
(0 1.51967e-16 0)
(-4.559e-16 1.51967e-16 0)
(-7.59833e-16 5.31883e-16 0)
(4.559e-16 3.03933e-16 0)
(7.59833e-16 -2.20352e-15 0)
(-7.59833e-16 -1.59565e-15 0)
(0 4.559e-16 0)
(4.559e-16 -2.58343e-15 0)
(0 -2.35548e-15 0)
(-6.07867e-16 -2.2795e-15 0)
(4.559e-16 7.59833e-16 0)
(6.07867e-16 2.2795e-16 0)
(-6.07867e-16 2.2795e-16 0)
(-4.559e-16 8.35817e-16 0)
(6.07867e-16 3.03933e-16 0)
(-4.559e-16 0 0)
(0 -7.59833e-17 0)
(4.559e-16 -2.2795e-15 0)
(0 6.8385e-16 0)
(3.03933e-16 7.59833e-17 0)
(1.51967e-16 1.44368e-15 0)
(-1.51967e-16 7.59833e-17 0)
(0 -2.43147e-15 0)
(-4.559e-16 -2.50745e-15 0)
(-9.118e-16 1.44368e-15 0)
(4.559e-16 7.59833e-17 0)
(6.07867e-16 2.2795e-15 0)