/*--------------------------------*- C++ -*----------------------------------*\
| =========                 |                                                 |
| \\      /  F ield         | OpenFOAM: The Open Source CFD Toolbox           |
|  \\    /   O peration     | Version:  2406                                  |
|   \\  /    A nd           | Website:  www.openfoam.com                      |
|    \\/     M anipulation  |                                                 |
\*---------------------------------------------------------------------------*/
FoamFile
{
    version     2.0;
    format      ascii;
    arch        "LSB;label=32;scalar=64";
    class       volScalarField;
    location    "4.75";
    object      gradTy;
}
// * * * * * * * * * * * * * * * * * * * * * * * * * * * * * * * * * * * * * //

dimensions      [0 -1 0 1 0 0 0];

internalField   nonuniform List<scalar> 
100
(
-156.25
31.25
125
250
31.25
-31.25
0
62.5
-31.25
-31.25
-312.5
-31.25
312.5
312.5
-31.25
31.25
62.5
156.25
218.75
62.5
-31.25
62.5
218.75
31.25
93.75
187.5
93.75
-31.25
156.25
156.25
218.75
156.25
-93.75
-93.75
-62.5
62.5
0
-62.5
62.5
-93.75
0
-62.5
-250
-218.75
-218.75
-62.5
-93.75
31.25
93.75
-250
-31.25
0
0
-62.5
156.25
281.25
187.5
156.25
-31.25
-125
281.25
343.75
375
218.75
312.5
281.25
312.5
218.75
93.75
-93.75
375
375
468.75
312.5
250
218.75
156.25
156.25
-125
-312.5
250
218.75
187.5
250
156.25
31.25
125
-156.25
-437.5
-218.75
125
125
62.5
31.25
31.25
-93.75
-31.25
-125
-281.25
0
)
;

boundaryField
{
    left
    {
        type            calculated;
        value           nonuniform List<scalar> 10(-156.25 -312.5 -31.25 218.75 0 -31.25 281.25 375 250 125);
    }
    right
    {
        type            calculated;
        value           nonuniform List<scalar> 10(-31.25 62.5 156.25 -93.75 -250 -125 -93.75 -312.5 -218.75 0);
    }
    top
    {
        type            calculated;
        value           uniform 0;
    }
    bottom
    {
        type            calculated;
        value           uniform 0;
    }
    defaultFaces
    {
        type            empty;
    }
}


// ************************************************************************* //
