/*--------------------------------*- C++ -*----------------------------------*\
| =========                 |                                                 |
| \\      /  F ield         | OpenFOAM: The Open Source CFD Toolbox           |
|  \\    /   O peration     | Version:  2406                                  |
|   \\  /    A nd           | Website:  www.openfoam.com                      |
|    \\/     M anipulation  |                                                 |
\*---------------------------------------------------------------------------*/
FoamFile
{
    version     2.0;
    format      ascii;
    arch        "LSB;label=32;scalar=64";
    class       volScalarField;
    location    "3.8";
    object      gradTx;
}
// * * * * * * * * * * * * * * * * * * * * * * * * * * * * * * * * * * * * * //

dimensions      [0 -1 0 1 0 0 0];

internalField   nonuniform List<scalar> 
100
(
-0.0114441
-0.0257492
-0.0038147
0.00476837
-0.0247955
-0.0200272
0.00953674
0.0038147
0.00476837
0.00953674
-0.0038147
-0.0038147
0.0123978
0
-0.0343323
-0.0219345
0.00858307
0.00762939
0.00190735
0.00476837
0.00572205
0.0162125
0.0219345
-0.00858307
-0.0343323
-0.0133514
0.000953674
0.00572205
0.00572205
-0.00190735
0.00286102
0.00667572
0.0114441
-0.0038147
-0.0190735
-0.0209808
-0.0114441
0.00858307
0.0162125
0.00476837
0
0
0.00667572
-0.00667572
-0.0209808
-0.0171661
-0.00858307
0.0143051
0.0038147
-0.00953674
0.00572205
-0.0038147
0
-0.0038147
-0.00858307
-0.0123978
-0.00858307
0.0162125
-0.000953674
-0.0114441
0.00190735
0.00286102
0.00476837
0.00286102
-0.00762939
-0.00572205
-0.0123978
-0.0114441
-0.00572205
-0.00762939
0.00286102
0
-0.00858307
-0.00858307
-0.00476837
-0.0143051
-0.00667572
-0.00476837
-0.0238419
-0.0181198
0.00953674
0.00286102
-0.0123978
-0.00953674
-0.00953674
-0.0152588
-0.0143051
-0.0200272
-0.0324249
-0.0200272
0.00286102
-0.00762939
-0.00953674
-0.0123978
-0.0181198
-0.0133514
-0.0143051
-0.0371933
-0.0305176
-0.00762939
)
;

boundaryField
{
    left
    {
        type            calculated;
        value           uniform 0;
    }
    right
    {
        type            calculated;
        value           uniform 0;
    }
    top
    {
        type            calculated;
        value           nonuniform List<scalar> 10(0.00286102 -0.00762939 -0.00953674 -0.0123978 -0.0181198 -0.0133514 -0.0143051 -0.0371933 -0.0305176 -0.00762939);
    }
    bottom
    {
        type            calculated;
        value           nonuniform List<scalar> 10(-0.0114441 -0.0257492 -0.0038147 0.00476837 -0.0247955 -0.0200272 0.00953674 0.0038147 0.00476837 0.00953674);
    }
    defaultFaces
    {
        type            empty;
    }
}


// ************************************************************************* //
