/*--------------------------------*- C++ -*----------------------------------*\
| =========                 |                                                 |
| \\      /  F ield         | OpenFOAM: The Open Source CFD Toolbox           |
|  \\    /   O peration     | Version:  2406                                  |
|   \\  /    A nd           | Website:  www.openfoam.com                      |
|    \\/     M anipulation  |                                                 |
\*---------------------------------------------------------------------------*/
FoamFile
{
    version     2.0;
    format      ascii;
    arch        "LSB;label=32;scalar=64";
    class       volVectorField;
    location    "4.3";
    object      flux;
}
// * * * * * * * * * * * * * * * * * * * * * * * * * * * * * * * * * * * * * //

dimensions      [0 1 -1 1 0 0 0];

internalField   nonuniform List<vector> 
100
(
(-0.0683594 -0.0683594 0)
(-0.166016 -0.00976562 0)
(0.00976563 0.0292969 0)
(0.0488281 0.0488281 0)
(-0.15625 0 0)
(-0.117188 -0.00976563 0)
(0.0195312 0 0)
(0.00976562 0.0292969 0)
(0.078125 0.00976563 0)
(0.0585937 0.00976562 0)
(-0.0292969 -0.175781 0)
(-0.0488281 -0.0390625 0)
(0.078125 0.126953 0)
(0.0292969 0.107422 0)
(-0.224609 0.00976562 0)
(-0.117188 0.0390625 0)
(0.0488281 0.0683594 0)
(0.0292969 0.0488281 0)
(0.0488281 0.078125 0)
(0.0585937 0.00976562 0)
(0.0585938 -0.0195313 0)
(0.126953 0.00976563 0)
(0.146484 0.0683594 0)
(-0.0585937 0.0292969 0)
(-0.224609 0.0488281 0)
(-0.078125 0.0878906 0)
(0.0488281 0.0488281 0)
(0.0292969 0 0)
(0.00976563 0.0585938 0)
(0.0292969 0.0390625 0)
(0.0195312 0.107422 0)
(0.0488281 0.0488281 0)
(0.0878906 -0.0585937 0)
(-0.0292969 -0.0683594 0)
(-0.146484 -0.0488281 0)
(-0.117187 0.0195312 0)
(-0.0488281 -0.0390625 0)
(0.0488281 -0.0390625 0)
(0.0878906 0.00976562 0)
(0.0390625 -0.0488281 0)
(0.00976562 -0.0292969 0)
(-0.0390625 -0.0195312 0)
(0.0390625 -0.0878906 0)
(-0.0390625 -0.0976562 0)
(-0.136719 -0.117188 0)
(-0.0585938 -0.0390625 0)
(-0.00976563 -0.0390625 0)
(0.0585937 0.0292969 0)
(0.0292969 0 0)
(-0.0585938 -0.0976563 0)
(0.00976563 0.00976563 0)
(-0.0390625 0.0195313 0)
(0 0 0)
(-0.0292969 -0.0292969 0)
(-0.0878906 0.078125 0)
(-0.0292969 0.078125 0)
(0 0.078125 0)
(0.0976562 0.0195312 0)
(-0.0390625 -0.0195313 0)
(-0.078125 -0.0390625 0)
(0.0292969 0.126953 0)
(-0.0195312 0.175781 0)
(-0.00976563 0.185547 0)
(0.00976562 0.078125 0)
(-0.0390625 0.126953 0)
(-0.0488281 0.117188 0)
(-0.0488281 0.107422 0)
(-0.0390625 0.0683594 0)
(-0.0488281 0 0)
(-0.0683594 -0.0585938 0)
(0.0488281 0.15625 0)
(0.00976562 0.185547 0)
(-0.0976562 0.224609 0)
(-0.0878906 0.107422 0)
(-0.0390625 0.0683594 0)
(-0.0585937 0.0878906 0)
(-0.0488281 0.0488281 0)
(-0.0390625 0.0488281 0)
(-0.136719 -0.0488281 0)
(-0.126953 -0.126953 0)
(0.0878906 0.0976563 0)
(0.0585937 0.0683594 0)
(-0.078125 0.078125 0)
(-0.146484 0.117188 0)
(-0.0683594 0.0390625 0)
(-0.078125 -0.0292969 0)
(-0.0878906 0 0)
(-0.107422 -0.0488281 0)
(-0.244141 -0.175781 0)
(-0.136719 -0.0878906 0)
(0.00976562 0.0585937 0)
(-0.0195312 -0.00976562 0)
(-0.0292969 -0.00976563 0)
(-0.117187 0.0488281 0)
(-0.175781 0 0)
(-0.107422 -0.0488281 0)
(-0.0878906 -0.0195313 0)
(-0.224609 -0.0683594 0)
(-0.185547 -0.126953 0)
(-0.0390625 -0.0292969 0)
)
;

boundaryField
{
    left
    {
        type            calculated;
        value           nonuniform List<vector> 10((0 -0.0683594 0) (0 -0.175781 0) (0 -0.0195313 0) (0 0.107422 0) (0 -0.0292969 0) (0 0.00976563 0) (0 0.126953 0) (0 0.15625 0) (0 0.0976563 0) (0 0.0585937 0));
    }
    right
    {
        type            calculated;
        value           nonuniform List<vector> 10((0 0.00976562 0) (0 0.00976562 0) (0 0.0390625 0) (0 -0.0488281 0) (0 -0.0976563 0) (0 -0.0390625 0) (0 -0.0585938 0) (0 -0.126953 0) (0 -0.0878906 0) (0 -0.0292969 0));
    }
    top
    {
        type            calculated;
        value           nonuniform List<vector> 10((0.00976562 0 0) (-0.0195312 0 0) (-0.0292969 0 0) (-0.117187 0 0) (-0.175781 0 0) (-0.107422 0 0) (-0.0878906 0 0) (-0.224609 0 0) (-0.185547 0 0) (-0.0390625 0 0));
    }
    bottom
    {
        type            calculated;
        value           nonuniform List<vector> 10((-0.0683594 0 0) (-0.166016 0 0) (0.00976563 0 0) (0.0488281 0 0) (-0.15625 0 0) (-0.117188 0 0) (0.0195312 0 0) (0.00976562 0 0) (0.078125 0 0) (0.0585937 0 0));
    }
    defaultFaces
    {
        type            empty;
    }
}


// ************************************************************************* //
