/*--------------------------------*- C++ -*----------------------------------*\
| =========                 |                                                 |
| \\      /  F ield         | OpenFOAM: The Open Source CFD Toolbox           |
|  \\    /   O peration     | Version:  2406                                  |
|   \\  /    A nd           | Website:  www.openfoam.com                      |
|    \\/     M anipulation  |                                                 |
\*---------------------------------------------------------------------------*/
FoamFile
{
    version     2.0;
    format      ascii;
    arch        "LSB;label=32;scalar=64";
    class       volScalarField;
    location    "4.3";
    object      gradTy;
}
// * * * * * * * * * * * * * * * * * * * * * * * * * * * * * * * * * * * * * //

dimensions      [0 -1 0 1 0 0 0];

internalField   nonuniform List<scalar> 
100
(
-1.70898
-0.244141
0.732422
1.2207
0
-0.244141
0
0.732422
0.244141
0.244141
-4.39453
-0.976562
3.17383
2.68555
0.244141
0.976563
1.70898
1.2207
1.95313
0.244141
-0.488281
0.244141
1.70898
0.732422
1.2207
2.19727
1.2207
0
1.46484
0.976563
2.68555
1.2207
-1.46484
-1.70898
-1.2207
0.488281
-0.976562
-0.976562
0.244141
-1.2207
-0.732422
-0.488281
-2.19727
-2.44141
-2.92969
-0.976563
-0.976563
0.732422
0
-2.44141
0.244141
0.488281
0
-0.732422
1.95313
1.95313
1.95313
0.488281
-0.488281
-0.976563
3.17383
4.39453
4.63867
1.95312
3.17383
2.92969
2.68555
1.70898
0
-1.46484
3.90625
4.63867
5.61523
2.68555
1.70898
2.19727
1.2207
1.2207
-1.2207
-3.17383
2.44141
1.70898
1.95313
2.92969
0.976563
-0.732422
0
-1.2207
-4.39453
-2.19727
1.46484
-0.244141
-0.244141
1.2207
0
-1.2207
-0.488281
-1.70898
-3.17383
-0.732422
)
;

boundaryField
{
    left
    {
        type            calculated;
        value           nonuniform List<scalar> 10(-1.70898 -4.39453 -0.488281 2.68555 -0.732422 0.244141 3.17383 3.90625 2.44141 1.46484);
    }
    right
    {
        type            calculated;
        value           nonuniform List<scalar> 10(0.244141 0.244141 0.976563 -1.2207 -2.44141 -0.976563 -1.46484 -3.17383 -2.19727 -0.732422);
    }
    top
    {
        type            calculated;
        value           uniform 0;
    }
    bottom
    {
        type            calculated;
        value           uniform 0;
    }
    defaultFaces
    {
        type            empty;
    }
}


// ************************************************************************* //
