/*--------------------------------*- C++ -*----------------------------------*\
| =========                 |                                                 |
| \\      /  F ield         | OpenFOAM: The Open Source CFD Toolbox           |
|  \\    /   O peration     | Version:  2406                                  |
|   \\  /    A nd           | Website:  www.openfoam.com                      |
|    \\/     M anipulation  |                                                 |
\*---------------------------------------------------------------------------*/
FoamFile
{
    version     2.0;
    format      ascii;
    arch        "LSB;label=32;scalar=64";
    class       volVectorField;
    location    "8";
    object      flux;
}
// * * * * * * * * * * * * * * * * * * * * * * * * * * * * * * * * * * * * * //

dimensions      [0 1 -1 1 0 0 0];

internalField   nonuniform List<vector> 
100
(
(-2.46291e+15 -2.11106e+15 0)
(-3.87028e+15 0 0)
(-3.51844e+14 7.03687e+14 0)
(0 2.11106e+15 0)
(-4.22212e+15 7.03687e+14 0)
(-2.81475e+15 0 0)
(0 0 0)
(-3.51844e+14 3.51844e+14 0)
(1.40737e+15 -3.51844e+14 0)
(1.75922e+15 0 0)
(0 -4.22212e+15 0)
(-1.05553e+15 -3.51844e+14 0)
(1.75922e+15 3.87028e+15 0)
(0 4.22212e+15 0)
(-6.68503e+15 7.03687e+14 0)
(-3.87028e+15 7.03687e+14 0)
(1.05553e+15 1.40737e+15 0)
(-3.51844e+14 1.05553e+15 0)
(7.03687e+14 2.11106e+15 0)
(1.75922e+15 3.51844e+14 0)
(1.40737e+15 1.40737e+15 0)
(3.51844e+15 1.05553e+15 0)
(4.22212e+15 3.16659e+15 0)
(-2.46291e+15 2.46291e+15 0)
(-8.09241e+15 2.81475e+15 0)
(-2.46291e+15 3.16659e+15 0)
(3.51844e+14 1.75922e+15 0)
(7.03687e+14 3.51844e+14 0)
(7.03687e+14 2.46291e+15 0)
(0 1.40737e+15 0)
(0 3.87028e+15 0)
(1.05553e+15 2.11106e+15 0)
(3.16659e+15 -1.40737e+15 0)
(-1.05553e+15 -2.11106e+15 0)
(-5.27766e+15 -1.05553e+15 0)
(-4.92581e+15 7.03687e+14 0)
(-2.11106e+15 -2.11106e+15 0)
(7.03687e+14 0 0)
(1.40737e+15 1.40737e+15 0)
(7.03687e+14 -7.03687e+14 0)
(-7.03687e+14 -3.51844e+14 0)
(-1.75922e+15 -3.51844e+14 0)
(3.51844e+14 -2.46291e+15 0)
(-2.46291e+15 -3.51844e+15 0)
(-5.27766e+15 -3.16659e+15 0)
(-3.51844e+15 -7.03687e+14 0)
(0 -7.03687e+14 0)
(3.87028e+15 1.05553e+15 0)
(0 1.40737e+15 0)
(-1.75922e+15 -1.40737e+15 0)
(0 -1.05553e+15 0)
(-1.75922e+15 3.51844e+14 0)
(0 0 0)
(-1.05553e+15 0 0)
(-2.81475e+15 3.16659e+15 0)
(-2.11106e+15 4.22212e+15 0)
(-1.05553e+15 3.87028e+15 0)
(3.16659e+15 1.40737e+15 0)
(-7.03687e+14 -1.05553e+15 0)
(-2.46291e+15 -7.03687e+14 0)
(7.03687e+14 3.16659e+15 0)
(-7.03687e+14 4.22212e+15 0)
(0 4.92581e+15 0)
(3.51844e+14 2.46291e+15 0)
(-1.05553e+15 4.22212e+15 0)
(-2.46291e+15 4.22212e+15 0)
(-2.46291e+15 4.57397e+15 0)
(-1.40737e+15 2.46291e+15 0)
(-1.75922e+15 0 0)
(-1.75922e+15 -1.05553e+15 0)
(1.05553e+15 4.57397e+15 0)
(0 5.6295e+15 0)
(-2.11106e+15 5.98134e+15 0)
(-1.40737e+15 3.87028e+15 0)
(-7.03687e+14 3.16659e+15 0)
(-2.46291e+15 3.16659e+15 0)
(-2.46291e+15 3.16659e+15 0)
(-1.75922e+15 2.81475e+15 0)
(-4.22212e+15 0 0)
(-3.51844e+15 -3.16659e+15 0)
(2.11106e+15 3.16659e+15 0)
(1.05553e+15 2.11106e+15 0)
(-1.75922e+15 1.75922e+15 0)
(-2.81475e+15 3.16659e+15 0)
(-2.11106e+15 1.05553e+15 0)
(-1.75922e+15 -3.51844e+14 0)
(-3.16659e+15 1.75922e+15 0)
(-4.57397e+15 -3.51844e+14 0)
(-7.38872e+15 -3.87028e+15 0)
(-4.22212e+15 -1.75922e+15 0)
(0 1.40737e+15 0)
(-1.40737e+15 -3.51844e+14 0)
(-1.05553e+15 -1.05553e+15 0)
(-2.11106e+15 7.03687e+14 0)
(-3.87028e+15 -3.51844e+14 0)
(-2.11106e+15 -1.05553e+15 0)
(-2.46291e+15 0 0)
(-7.03687e+15 -1.40737e+15 0)
(-6.33319e+15 -2.11106e+15 0)
(-1.75922e+15 0 0)
)
;

boundaryField
{
    left
    {
        type            calculated;
        value           nonuniform List<vector> 10((0 -2.11106e+15 0) (0 -4.22212e+15 0) (0 1.40737e+15 0) (0 3.87028e+15 0) (0 -3.51844e+14 0) (0 -1.05553e+15 0) (0 3.16659e+15 0) (0 4.57397e+15 0) (0 3.16659e+15 0) (0 1.40737e+15 0));
    }
    right
    {
        type            calculated;
        value           nonuniform List<vector> 10((0 0 0) (0 3.51844e+14 0) (0 1.40737e+15 0) (0 -7.03687e+14 0) (0 -1.40737e+15 0) (0 -7.03687e+14 0) (0 -1.05553e+15 0) (0 -3.16659e+15 0) (0 -1.75922e+15 0) (0 0 0));
    }
    top
    {
        type            calculated;
        value           nonuniform List<vector> 10((0 0 0) (-1.40737e+15 0 0) (-1.05553e+15 0 0) (-2.11106e+15 0 0) (-3.87028e+15 0 0) (-2.11106e+15 0 0) (-2.46291e+15 0 0) (-7.03687e+15 0 0) (-6.33319e+15 0 0) (-1.75922e+15 0 0));
    }
    bottom
    {
        type            calculated;
        value           nonuniform List<vector> 10((-2.46291e+15 0 0) (-3.87028e+15 0 0) (-3.51844e+14 0 0) (0 0 0) (-4.22212e+15 0 0) (-2.81475e+15 0 0) (0 0 0) (-3.51844e+14 0 0) (1.40737e+15 0 0) (1.75922e+15 0 0));
    }
    defaultFaces
    {
        type            empty;
    }
}


// ************************************************************************* //
