/*--------------------------------*- C++ -*----------------------------------*\
| =========                 |                                                 |
| \\      /  F ield         | OpenFOAM: The Open Source CFD Toolbox           |
|  \\    /   O peration     | Version:  2406                                  |
|   \\  /    A nd           | Website:  www.openfoam.com                      |
|    \\/     M anipulation  |                                                 |
\*---------------------------------------------------------------------------*/
FoamFile
{
    version     2.0;
    format      ascii;
    arch        "LSB;label=32;scalar=64";
    class       volScalarField;
    location    "8";
    object      gradTy;
}
// * * * * * * * * * * * * * * * * * * * * * * * * * * * * * * * * * * * * * //

dimensions      [0 -1 0 1 0 0 0];

internalField   nonuniform List<scalar> 
100
(
-5.27766e+16
0
1.75922e+16
5.27766e+16
1.75922e+16
0
0
8.79609e+15
-8.79609e+15
0
-1.05553e+17
-8.79609e+15
9.6757e+16
1.05553e+17
1.75922e+16
1.75922e+16
3.51844e+16
2.63883e+16
5.27766e+16
8.79609e+15
3.51844e+16
2.63883e+16
7.91648e+16
6.15727e+16
7.03687e+16
7.91648e+16
4.39805e+16
8.79609e+15
6.15727e+16
3.51844e+16
9.6757e+16
5.27766e+16
-3.51844e+16
-5.27766e+16
-2.63883e+16
1.75922e+16
-5.27766e+16
0
3.51844e+16
-1.75922e+16
-8.79609e+15
-8.79609e+15
-6.15727e+16
-8.79609e+16
-7.91648e+16
-1.75922e+16
-1.75922e+16
2.63883e+16
3.51844e+16
-3.51844e+16
-2.63883e+16
8.79609e+15
0
0
7.91648e+16
1.05553e+17
9.6757e+16
3.51844e+16
-2.63883e+16
-1.75922e+16
7.91648e+16
1.05553e+17
1.23145e+17
6.15727e+16
1.05553e+17
1.05553e+17
1.14349e+17
6.15727e+16
0
-2.63883e+16
1.14349e+17
1.40737e+17
1.49534e+17
9.6757e+16
7.91648e+16
7.91648e+16
7.91648e+16
7.03687e+16
0
-7.91648e+16
7.91648e+16
5.27766e+16
4.39805e+16
7.91648e+16
2.63883e+16
-8.79609e+15
4.39805e+16
-8.79609e+15
-9.6757e+16
-4.39805e+16
3.51844e+16
-8.79609e+15
-2.63883e+16
1.75922e+16
-8.79609e+15
-2.63883e+16
0
-3.51844e+16
-5.27766e+16
0
)
;

boundaryField
{
    left
    {
        type            calculated;
        value           nonuniform List<scalar> 10(-5.27766e+16 -1.05553e+17 3.51844e+16 9.6757e+16 -8.79609e+15 -2.63883e+16 7.91648e+16 1.14349e+17 7.91648e+16 3.51844e+16);
    }
    right
    {
        type            calculated;
        value           nonuniform List<scalar> 10(0 8.79609e+15 3.51844e+16 -1.75922e+16 -3.51844e+16 -1.75922e+16 -2.63883e+16 -7.91648e+16 -4.39805e+16 0);
    }
    top
    {
        type            calculated;
        value           uniform 0;
    }
    bottom
    {
        type            calculated;
        value           uniform 0;
    }
    defaultFaces
    {
        type            empty;
    }
}


// ************************************************************************* //
