/*--------------------------------*- C++ -*----------------------------------*\
| =========                 |                                                 |
| \\      /  F ield         | OpenFOAM: The Open Source CFD Toolbox           |
|  \\    /   O peration     | Version:  2406                                  |
|   \\  /    A nd           | Website:  www.openfoam.com                      |
|    \\/     M anipulation  |                                                 |
\*---------------------------------------------------------------------------*/
FoamFile
{
    version     2.0;
    format      ascii;
    arch        "LSB;label=32;scalar=64";
    class       volScalarField;
    location    "9.3";
    object      gradTy;
}
// * * * * * * * * * * * * * * * * * * * * * * * * * * * * * * * * * * * * * //

dimensions      [0 -1 0 1 0 0 0];

internalField   nonuniform List<scalar> 
100
(
-2.76701e+22
0
4.61169e+21
2.76701e+22
-4.61169e+21
-9.22337e+21
9.22337e+21
4.61169e+21
4.61169e+21
-9.22337e+21
-6.91753e+22
-1.38351e+22
4.61169e+22
5.99519e+22
4.61169e+21
9.22337e+21
2.30584e+22
2.30584e+22
4.15052e+22
2.30584e+22
-9.22337e+21
4.61169e+21
3.68935e+22
1.84467e+22
1.84467e+22
5.53402e+22
1.84467e+22
9.22337e+21
4.15052e+22
3.22818e+22
4.15052e+22
2.30584e+22
-1.38351e+22
-3.22818e+22
-9.22337e+21
1.38351e+22
-1.38351e+22
-9.22337e+21
1.84467e+22
-4.61169e+21
-9.22337e+21
-4.61169e+21
-2.30584e+22
-2.76701e+22
-3.22818e+22
-1.38351e+22
4.61169e+21
1.84467e+22
2.30584e+22
-1.84467e+22
4.61169e+21
1.38351e+22
0
4.61169e+21
5.53402e+22
5.99519e+22
4.15052e+22
1.84467e+22
-1.38351e+22
-1.84467e+22
5.99519e+22
5.99519e+22
6.45636e+22
2.76701e+22
5.99519e+22
5.99519e+22
5.07285e+22
4.15052e+22
-4.61169e+21
-3.68935e+22
6.45636e+22
6.91753e+22
7.83987e+22
3.68935e+22
2.76701e+22
2.76701e+22
3.68935e+22
3.68935e+22
-9.22337e+21
-5.07285e+22
3.22818e+22
2.30584e+22
2.76701e+22
3.22818e+22
0
-4.61169e+21
1.84467e+22
-1.84467e+22
-6.91753e+22
-3.68935e+22
2.76701e+22
4.61169e+21
-4.61169e+21
4.61169e+21
0
-1.84467e+22
-4.61169e+21
-1.84467e+22
-4.61169e+22
-4.61169e+21
)
;

boundaryField
{
    left
    {
        type            calculated;
        value           nonuniform List<scalar> 10(-2.76701e+22 -6.91753e+22 -9.22337e+21 4.15052e+22 -9.22337e+21 4.61169e+21 5.99519e+22 6.45636e+22 3.22818e+22 2.76701e+22);
    }
    right
    {
        type            calculated;
        value           nonuniform List<scalar> 10(-9.22337e+21 2.30584e+22 3.22818e+22 -4.61169e+21 -1.84467e+22 -1.84467e+22 -3.68935e+22 -5.07285e+22 -3.68935e+22 -4.61169e+21);
    }
    top
    {
        type            calculated;
        value           uniform 0;
    }
    bottom
    {
        type            calculated;
        value           uniform 0;
    }
    defaultFaces
    {
        type            empty;
    }
}


// ************************************************************************* //
