/*--------------------------------*- C++ -*----------------------------------*\
| =========                 |                                                 |
| \\      /  F ield         | OpenFOAM: The Open Source CFD Toolbox           |
|  \\    /   O peration     | Version:  v2012                                 |
|   \\  /    A nd           | Website:  www.openfoam.com                      |
|    \\/     M anipulation  |                                                 |
\*---------------------------------------------------------------------------*/
FoamFile
{
    version     2.0;
    format      ascii;
    class       volVectorField;
    location    "0.1";
    object      flux;
}
// * * * * * * * * * * * * * * * * * * * * * * * * * * * * * * * * * * * * * //

dimensions      [0 1 -1 1 0 0 0];


internalField   nonuniform List<vector> 
5000
(
(0 0 0)
(0 6.41205e-17 0)
(0 7.69446e-16 0)
(6.41205e-16 7.05325e-16 0)
(2.05186e-15 5.77084e-16 0)
(-8.97687e-16 -2.56482e-16 0)
(-1.41065e-15 8.33566e-16 0)
(2.56482e-16 -6.41205e-17 0)
(-8.97687e-16 7.69446e-16 0)
(0 1.28241e-16 0)
(2.56482e-16 5.12964e-16 0)
(-2.56482e-16 5.12964e-16 0)
(-2.56482e-16 9.61807e-16 0)
(8.97687e-16 1.28241e-16 0)
(7.69446e-16 4.48843e-16 0)
(-8.97687e-16 -1.28241e-16 0)
(-7.69446e-16 1.28241e-16 0)
(0 8.33566e-16 0)
(0 1.92361e-16 0)
(1.79537e-15 1.92361e-16 0)
(0 -4.48843e-16 0)
(-1.02593e-15 1.28241e-16 0)
(1.28241e-16 -1.28241e-16 0)
(-6.41205e-16 7.69446e-16 0)
(-2.56482e-16 1.92361e-16 0)
(0 1.28241e-16 0)
(0 1.28241e-16 0)
(2.30834e-15 8.33566e-16 0)
(0 0 0)
(-2.30834e-15 1.28241e-16 0)
(5.12964e-16 8.33566e-16 0)
(0 -1.28241e-16 0)
(-5.12964e-16 1.28241e-16 0)
(2.30834e-15 1.28241e-16 0)
(5.12964e-16 0 0)
(-1.41065e-15 6.41205e-16 0)
(0 -2.56482e-16 0)
(0 6.41205e-16 0)
(0 -2.56482e-16 0)
(1.41065e-15 6.41205e-16 0)
(3.84723e-16 0 0)
(-2.30834e-15 -2.56482e-16 0)
(-1.15417e-15 1.28241e-16 0)
(0 8.97687e-16 0)
(2.56482e-16 1.28241e-16 0)
(8.97687e-16 1.28241e-16 0)
(0 4.48843e-16 0)
(-8.97687e-16 1.28241e-16 0)
(0 1.28241e-16 0)
(0 1.28241e-16 0)
(0 1.28241e-16 0)
(0 1.28241e-16 0)
(0 1.28241e-16 0)
(0 1.28241e-16 0)
(0 3.84723e-16 0)
(0 1.28241e-16 0)
(8.97687e-16 1.28241e-16 0)
(0 -3.20602e-16 0)
(-8.97687e-16 0 0)
(0 0 0)
(0 3.84723e-16 0)
(0 8.33566e-16 0)
(2.30834e-15 0 0)
(0 -8.33566e-16 0)
(-2.30834e-15 0 0)
(0 1.28241e-16 0)
(0 3.84723e-16 0)
(2.30834e-15 1.28241e-16 0)
(0 -8.33566e-16 0)
(0 0 0)
(2.30834e-15 -8.33566e-16 0)
(-1.41065e-15 -8.33566e-16 0)
(-1.41065e-15 4.48843e-16 0)
(-6.41205e-16 -2.56482e-16 0)
(-6.41205e-16 0 0)
(-2.56482e-16 2.56482e-16 0)
(6.41205e-16 1.28241e-16 0)
(5.12964e-16 -3.20602e-16 0)
(1.41065e-15 -1.92361e-16 0)
(-5.12964e-16 -5.12964e-16 0)
(-2.30834e-15 8.33566e-16 0)
(-2.56482e-16 1.28241e-16 0)
(1.02593e-15 6.41205e-17 0)
(1.02593e-15 -3.20602e-16 0)
(-3.84723e-16 4.48843e-16 0)
(0 6.41205e-16 0)
(1.79537e-15 4.48843e-16 0)
(0 -5.12964e-16 0)
(-2.30834e-15 4.48843e-16 0)
(-8.97687e-16 0 0)
(0 0 0)
(0 1.28241e-16 0)
(0 3.84723e-16 0)
(8.97687e-16 6.41205e-16 0)
(5.12964e-16 4.48843e-16 0)
(-8.97687e-16 7.05325e-16 0)
(-5.12964e-16 0 0)
(8.97687e-16 1.28241e-16 0)
(8.97687e-16 -3.20602e-16 0)
(0 -1.92361e-16 0)
(2.60136e-16 6.5034e-17 0)
(2.34122e-15 0 0)
(1.82095e-15 -6.5034e-17 0)
(-2.60136e-16 0 0)
(-5.20272e-16 -3.2517e-16 0)
(0 -8.45441e-16 0)
(-1.04054e-15 0 0)
(0 -3.2517e-16 0)
(-5.20272e-16 -1.30068e-16 0)
(-3.90204e-16 0 0)
(1.30068e-15 -1.30068e-16 0)
(6.5034e-16 -1.30068e-16 0)
(-1.30068e-15 -1.30068e-16 0)
(-2.60136e-16 6.5034e-17 0)
(0 -3.2517e-16 0)
(-2.08109e-15 -1.95102e-16 0)
(2.08109e-15 0 0)
(2.60136e-16 0 0)
(-1.82095e-15 0 0)
(2.60136e-16 0 0)
(-2.60136e-16 -4.55238e-16 0)
(-5.20272e-16 0 0)
(2.08109e-15 -2.60136e-16 0)
(2.60136e-16 -1.30068e-16 0)
(-2.08109e-15 0 0)
(-2.60136e-16 6.5034e-17 0)
(2.08109e-15 0 0)
(2.08109e-15 0 0)
(-2.08109e-15 -8.45441e-16 0)
(0 0 0)
(0 0 0)
(-2.08109e-15 -1.30068e-16 0)
(0 0 0)
(2.08109e-15 0 0)
(2.08109e-15 -8.45441e-16 0)
(-2.08109e-15 -1.95102e-16 0)
(0 -3.2517e-16 0)
(0 -1.95102e-16 0)
(0 -3.2517e-16 0)
(2.08109e-15 -1.95102e-16 0)
(-2.08109e-15 -8.45441e-16 0)
(-2.08109e-15 -3.2517e-16 0)
(2.08109e-15 0 0)
(0 6.5034e-17 0)
(-2.08109e-15 0 0)
(2.08109e-15 0 0)
(0 -3.2517e-16 0)
(-2.08109e-15 0 0)
(0 0 0)
(0 0 0)
(0 0 0)
(0 0 0)
(0 0 0)
(7.80408e-16 0 0)
(0 0 0)
(-7.80408e-16 0 0)
(-1.30068e-16 0 0)
(-2.60136e-16 -3.90204e-16 0)
(0 0 0)
(9.10475e-16 0 0)
(2.21115e-15 0 0)
(-9.10475e-16 0 0)
(-2.21115e-15 0 0)
(0 -8.45441e-16 0)
(2.60136e-16 0 0)
(9.10475e-16 0 0)
(0 0 0)
(-9.10475e-16 3.2517e-16 0)
(-2.60136e-16 0 0)
(0 0 0)
(0 -8.45441e-16 0)
(2.21115e-15 -8.45441e-16 0)
(2.60136e-16 -3.2517e-16 0)
(-2.08109e-15 -3.2517e-16 0)
(7.80408e-16 -6.5034e-17 0)
(0 -6.5034e-17 0)
(-9.10475e-16 0 0)
(-2.60136e-16 -3.90204e-16 0)
(9.10475e-16 6.5034e-16 0)
(2.21115e-15 0 0)
(-6.5034e-16 0 0)
(-2.21115e-15 0 0)
(-2.60136e-16 6.5034e-17 0)
(2.21115e-15 3.2517e-16 0)
(2.34122e-15 0 0)
(0 -1.95102e-16 0)
(-1.43075e-15 -3.2517e-16 0)
(0 -7.80408e-16 0)
(-9.10475e-16 -3.2517e-16 0)
(-2.21115e-15 0 0)
(2.60136e-16 0 0)
(9.10475e-16 0 0)
(1.56082e-15 0 0)
(1.17061e-15 -6.5034e-17 0)
(6.5034e-16 -3.2517e-16 0)
(-2.34122e-15 -2.60136e-16 0)
(-1.95102e-15 0 0)
(0 0 0)
(1.30068e-16 -3.90204e-16 0)
(5.20272e-16 -3.2517e-16 0)
(-1.31921e-16 -6.59605e-17 0)
(-5.27684e-16 0 0)
(0 -9.23446e-16 0)
(2.63842e-16 -6.59605e-16 0)
(-2.63842e-16 -7.91525e-16 0)
(-2.63842e-16 -5.93644e-16 0)
(0 -7.25565e-16 0)
(0 -1.97881e-16 0)
(0 -8.57486e-16 0)
(0 6.59605e-17 0)
(0 -5.93644e-16 0)
(0 0 0)
(2.63842e-16 -8.57486e-16 0)
(0 -6.59605e-17 0)
(0 -7.25565e-16 0)
(0 0 0)
(-2.63842e-16 0 0)
(0 -4.61723e-16 0)
(0 -6.59605e-17 0)
(2.63842e-16 -1.97881e-16 0)
(0 -1.97881e-16 0)
(-2.63842e-16 0 0)
(0 -1.31921e-16 0)
(0 -7.25565e-16 0)
(2.63842e-16 -6.59605e-17 0)
(0 0 0)
(-2.63842e-16 0 0)
(0 -8.57486e-16 0)
(0 -7.25565e-16 0)
(0 0 0)
(0 -8.57486e-16 0)
(0 0 0)
(0 0 0)
(0 0 0)
(0 -5.93644e-16 0)
(0 -8.57486e-16 0)
(0 0 0)
(0 -7.25565e-16 0)
(0 0 0)
(0 -7.25565e-16 0)
(0 -7.25565e-16 0)
(0 0 0)
(0 0 0)
(0 -7.25565e-16 0)
(0 -1.31921e-16 0)
(0 0 0)
(0 -8.57486e-16 0)
(0 -2.63842e-16 0)
(0 0 0)
(0 2.63842e-16 0)
(0 0 0)
(0 0 0)
(0 6.59605e-17 0)
(0 0 0)
(0 -1.97881e-16 0)
(0 0 0)
(0 1.31921e-16 0)
(0 1.31921e-16 0)
(0 1.97881e-16 0)
(0 1.31921e-16 0)
(0 -1.97881e-16 0)
(0 -7.25565e-16 0)
(0 1.31921e-16 0)
(0 1.31921e-16 0)
(0 1.97881e-16 0)
(0 0 0)
(9.23446e-16 -1.97881e-16 0)
(2.24266e-15 0 0)
(-7.91525e-16 0 0)
(-2.37458e-15 1.31921e-16 0)
(0 1.97881e-16 0)
(0 1.31921e-16 0)
(0 -7.25565e-16 0)
(0 6.59605e-17 0)
(0 0 0)
(0 -2.63842e-16 0)
(0 0 0)
(2.37458e-15 1.31921e-16 0)
(2.24266e-15 1.97881e-16 0)
(-2.24266e-15 -1.97881e-16 0)
(-2.37458e-15 -7.25565e-16 0)
(0 0 0)
(1.58305e-15 0 0)
(9.23446e-16 6.59605e-17 0)
(-1.58305e-15 -7.25565e-16 0)
(-9.23446e-16 -6.59605e-16 0)
(0 -7.25565e-16 0)
(0 -1.97881e-16 0)
(0 -7.25565e-16 0)
(0 1.97881e-16 0)
(0 1.31921e-16 0)
(0 0 0)
(0 -3.95763e-16 0)
(0 -5.93644e-16 0)
(0 -7.25565e-16 0)
(0 -8.57486e-16 0)
(0 0 0)
(0 -1.31921e-16 0)
(0 1.31921e-16 0)
(0 0 0)
(4.01401e-16 -2.007e-16 0)
(0 8.02802e-16 0)
(0 8.69702e-16 0)
(0 8.02802e-16 0)
(-4.01401e-16 7.35902e-16 0)
(1.338e-16 8.69702e-16 0)
(2.67601e-16 8.69702e-16 0)
(-2.67601e-16 3.34501e-16 0)
(2.67601e-16 3.34501e-16 0)
(0 8.69702e-16 0)
(9.36602e-16 3.34501e-16 0)
(0 0 0)
(-1.338e-15 4.01401e-16 0)
(1.338e-16 2.67601e-16 0)
(2.67601e-16 8.69702e-16 0)
(0 2.007e-16 0)
(6.69002e-16 8.69702e-16 0)
(0 8.02802e-16 0)
(-9.36602e-16 8.69702e-16 0)
(0 0 0)
(2.67601e-16 0 0)
(-2.67601e-16 2.67601e-16 0)
(0 0 0)
(2.67601e-16 6.69002e-17 0)
(0 0 0)
(0 -6.69002e-17 0)
(-2.67601e-16 0 0)
(0 0 0)
(2.67601e-16 8.02802e-16 0)
(-2.67601e-16 6.69002e-17 0)
(0 1.338e-16 0)
(2.67601e-16 0 0)
(0 0 0)
(4.01401e-16 6.69002e-17 0)
(-1.338e-16 0 0)
(-5.35201e-16 0 0)
(2.67601e-16 0 0)
(0 0 0)
(0 6.69002e-17 0)
(0 0 0)
(0 6.69002e-17 0)
(0 6.69002e-17 0)
(0 8.69702e-16 0)
(-2.67601e-16 0 0)
(0 0 0)
(0 0 0)
(-6.69002e-16 0 0)
(2.67601e-16 0 0)
(1.338e-15 4.68301e-16 0)
(0 8.02802e-16 0)
(-6.69002e-16 3.34501e-16 0)
(2.67601e-16 0 0)
(0 0 0)
(0 3.34501e-16 0)
(0 3.34501e-16 0)
(1.338e-16 3.34501e-16 0)
(0 3.34501e-16 0)
(-1.338e-16 0 0)
(0 0 0)
(0 6.69002e-17 0)
(0 0 0)
(-2.67601e-16 0 0)
(0 0 0)
(2.67601e-16 0 0)
(0 8.69702e-16 0)
(0 8.69702e-16 0)
(0 8.69702e-16 0)
(-5.35201e-16 -2.67601e-16 0)
(0 -5.35201e-16 0)
(5.35201e-16 0 0)
(0 0 0)
(-2.67601e-16 0 0)
(2.67601e-16 0 0)
(0 0 0)
(-2.67601e-16 0 0)
(0 6.69002e-17 0)
(0 0 0)
(2.67601e-16 -2.67601e-16 0)
(0 -8.69702e-16 0)
(-2.67601e-16 -8.69702e-16 0)
(0 0 0)
(-2.67601e-16 3.34501e-16 0)
(2.67601e-16 0 0)
(2.67601e-16 -6.02101e-16 0)
(0 -3.34501e-16 0)
(0 -2.007e-16 0)
(0 -2.007e-16 0)
(0 -2.007e-16 0)
(0 0 0)
(0 2.67601e-16 0)
(-2.67601e-16 6.69002e-17 0)
(-2.67601e-16 0 0)
(-1.338e-16 0 0)
(1.338e-16 1.338e-16 0)
(0 0 0)
(-1.338e-16 0 0)
(0 0 0)
(1.338e-16 0 0)
(5.35201e-16 -1.338e-16 0)
(1.338e-16 0 0)
(2.30701e-15 -6.78532e-17 0)
(2.1713e-15 -2.0356e-16 0)
(0 0 0)
(0 -2.0356e-16 0)
(0 0 0)
(0 -2.71413e-16 0)
(-1.35706e-15 -1.35706e-16 0)
(-1.35706e-15 -6.78532e-17 0)
(1.35706e-15 -6.10679e-16 0)
(0 -2.0356e-16 0)
(-2.0356e-15 0 0)
(0 -5.42826e-16 0)
(6.78532e-16 -2.71413e-16 0)
(1.35706e-15 -6.10679e-16 0)
(-1.35706e-16 -2.0356e-16 0)
(0 -1.35706e-16 0)
(1.49277e-15 -1.35706e-16 0)
(0 -6.10679e-16 0)
(-2.1713e-15 -1.35706e-16 0)
(-2.0356e-15 -5.42826e-16 0)
(6.78532e-16 -2.0356e-16 0)
(-2.71413e-16 -1.35706e-16 0)
(-4.07119e-16 0 0)
(0 -6.78532e-17 0)
(-2.71413e-16 -1.35706e-16 0)
(0 -6.78532e-16 0)
(0 -1.35706e-16 0)
(2.30701e-15 -5.42826e-16 0)
(1.35706e-16 -6.78532e-17 0)
(-2.0356e-15 -6.78532e-17 0)
(-1.35706e-16 -6.10679e-16 0)
(-2.71413e-16 -1.35706e-16 0)
(2.71413e-16 -6.78532e-16 0)
(0 -6.78532e-16 0)
(-2.71413e-16 -2.71413e-16 0)
(0 -5.42826e-16 0)
(0 -1.35706e-16 0)
(2.71413e-16 -6.78532e-16 0)
(0 -6.78532e-17 0)
(0 -6.78532e-16 0)
(1.35706e-16 -6.78532e-17 0)
(2.0356e-15 -6.78532e-17 0)
(-1.35706e-16 -7.46386e-16 0)
(-2.30701e-15 -1.35706e-16 0)
(0 0 0)
(0 -6.78532e-16 0)
(0 0 0)
(1.35706e-15 -4.07119e-16 0)
(2.30701e-15 -6.78532e-16 0)
(-5.42826e-16 -9.49945e-16 0)
(-2.1713e-15 -6.78532e-16 0)
(-9.49945e-16 -6.78532e-16 0)
(9.49945e-16 -7.46386e-16 0)
(8.14239e-16 -6.78532e-17 0)
(0 -7.46386e-16 0)
(0 -6.78532e-16 0)
(-8.14239e-16 -3.39266e-16 0)
(-9.49945e-16 -6.78532e-16 0)
(2.71413e-16 -7.46386e-16 0)
(0 -6.78532e-17 0)
(-2.71413e-16 -7.46386e-16 0)
(0 -6.78532e-16 0)
(0 -2.0356e-16 0)
(2.30701e-15 -2.0356e-16 0)
(2.1713e-15 -2.71413e-16 0)
(0 -1.35706e-16 0)
(-2.0356e-15 -8.14239e-16 0)
(-1.35706e-15 -6.78532e-17 0)
(-1.35706e-16 -6.78532e-17 0)
(-9.49945e-16 -6.78532e-16 0)
(0 -2.0356e-16 0)
(0 -2.0356e-16 0)
(0 -1.35706e-16 0)
(0 -2.0356e-16 0)
(2.71413e-16 -1.35706e-16 0)
(0 -6.78532e-16 0)
(-9.49945e-16 -1.35706e-16 0)
(0 -6.78532e-17 0)
(6.78532e-16 -2.71413e-16 0)
(0 -1.35706e-16 0)
(9.49945e-16 -1.35706e-16 0)
(0 -1.35706e-16 0)
(-9.49945e-16 -5.42826e-16 0)
(0 -2.0356e-16 0)
(-4.07119e-16 -6.78532e-16 0)
(-5.42826e-16 -7.46386e-16 0)
(0 -6.78532e-17 0)
(5.42826e-16 -7.46386e-16 0)
(1.08565e-15 -6.78532e-16 0)
(2.71413e-16 -2.0356e-16 0)
(-6.78532e-16 -6.78532e-16 0)
(-2.71413e-16 -1.35706e-16 0)
(2.71413e-16 -8.14239e-16 0)
(0 -1.35706e-16 0)
(-2.71413e-16 -1.35706e-16 0)
(0 0 0)
(0 -6.78532e-17 0)
(-2.71413e-16 0 0)
(0 -6.78532e-17 0)
(2.71413e-16 -2.0356e-16 0)
(1.3764e-16 0 0)
(2.7528e-16 -8.25839e-16 0)
(0 -8.25839e-16 0)
(0 -8.94659e-16 0)
(-6.88199e-16 -8.94659e-16 0)
(0 -6.88199e-16 0)
(6.88199e-16 -8.94659e-16 0)
(-1.3764e-15 -3.441e-16 0)
(-2.7528e-16 -1.3764e-16 0)
(1.65168e-15 -6.88199e-16 0)
(0 -3.441e-16 0)
(-6.88199e-16 1.3764e-16 0)
(-1.65168e-15 -2.7528e-16 0)
(6.88199e-16 -6.19379e-16 0)
(1.3764e-15 -8.94659e-16 0)
(2.7528e-16 -2.7528e-16 0)
(-6.88199e-16 -8.94659e-16 0)
(0 -6.88199e-16 0)
(-9.63479e-16 -8.94659e-16 0)
(0 6.88199e-17 0)
(1.3764e-15 -6.88199e-17 0)
(2.7528e-16 -1.3764e-16 0)
(0 1.3764e-16 0)
(0 -1.3764e-16 0)
(-1.65168e-15 -1.3764e-16 0)
(2.7528e-16 6.88199e-17 0)
(0 0 0)
(0 6.88199e-17 0)
(1.3764e-15 -8.94659e-16 0)
(-1.3764e-15 -1.3764e-16 0)
(-2.7528e-16 0 0)
(2.7528e-16 0 0)
(-1.65168e-15 6.88199e-17 0)
(1.65168e-15 -2.0646e-16 0)
(0 0 0)
(0 -1.3764e-16 0)
(0 -8.25839e-16 0)
(-2.7528e-16 6.88199e-17 0)
(2.7528e-16 -1.3764e-16 0)
(0 6.88199e-17 0)
(1.3764e-15 -1.3764e-16 0)
(-1.3764e-15 -3.441e-16 0)
(-2.7528e-16 -1.44522e-15 0)
(1.65168e-15 0 0)
(-1.65168e-15 0 0)
(2.7528e-16 6.88199e-17 0)
(0 1.3764e-16 0)
(-1.65168e-15 -6.19379e-16 0)
(0 -4.12919e-16 0)
(0 -7.57019e-16 0)
(0 -4.81739e-16 0)
(0 -8.94659e-16 0)
(1.65168e-15 6.88199e-17 0)
(0 -4.12919e-16 0)
(-1.65168e-15 -9.63479e-16 0)
(1.23876e-15 -1.23876e-15 0)
(1.3764e-16 -3.441e-16 0)
(-1.3764e-15 6.88199e-17 0)
(1.65168e-15 0 0)
(0 -6.88199e-16 0)
(-1.65168e-15 1.3764e-16 0)
(1.23876e-15 6.88199e-17 0)
(1.3764e-15 0 0)
(0 -8.94659e-16 0)
(1.3764e-16 -8.94659e-16 0)
(-1.10112e-15 -8.94659e-16 0)
(0 -7.57019e-16 0)
(1.10112e-15 -1.3764e-16 0)
(-1.3764e-15 -3.441e-16 0)
(0 -8.94659e-16 0)
(1.3764e-15 0 0)
(0 0 0)
(2.7528e-16 0 0)
(0 -8.25839e-16 0)
(-1.3764e-15 -6.88199e-17 0)
(0 0 0)
(1.3764e-15 0 0)
(-2.7528e-16 2.0646e-16 0)
(0 -8.94659e-16 0)
(2.7528e-16 -6.88199e-17 0)
(0 0 0)
(-1.3764e-15 -9.63479e-16 0)
(0 6.88199e-17 0)
(-2.7528e-16 0 0)
(-1.3764e-15 6.88199e-17 0)
(1.65168e-15 -6.88199e-16 0)
(0 0 0)
(-1.65168e-15 2.7528e-16 0)
(1.65168e-15 6.88199e-17 0)
(-2.7528e-16 -2.7528e-16 0)
(2.7528e-16 0 0)
(-9.63479e-16 -6.88199e-17 0)
(-1.3764e-16 6.88199e-17 0)
(2.20224e-15 0 0)
(2.7528e-16 0 0)
(-2.7528e-16 0 0)
(0 0 0)
(2.7528e-16 -8.25839e-16 0)
(0 6.88199e-17 0)
(0 -6.88199e-17 0)
(1.39601e-16 6.98003e-17 0)
(2.79201e-16 -6.98003e-17 0)
(-2.79201e-16 0 0)
(-1.39601e-16 0 0)
(4.18802e-16 0 0)
(0 2.79201e-16 0)
(-4.18802e-16 -2.09401e-16 0)
(1.39601e-16 0 0)
(5.58403e-16 4.88602e-16 0)
(-2.79201e-16 0 0)
(0 -6.98003e-17 0)
(2.79201e-16 0 0)
(-1.39601e-15 2.79201e-16 0)
(-2.79201e-16 2.79201e-16 0)
(9.77205e-16 2.09401e-16 0)
(0 -2.09401e-16 0)
(4.18802e-16 -2.09401e-16 0)
(0 2.09401e-16 0)
(-4.18802e-16 0 0)
(0 4.18802e-16 0)
(1.39601e-16 6.98003e-17 0)
(2.79201e-16 0 0)
(-2.79201e-16 -2.79201e-16 0)
(-5.58403e-16 0 0)
(0 -6.98003e-17 0)
(4.18802e-16 4.88602e-16 0)
(0 0 0)
(0 4.88602e-16 0)
(0 0 0)
(0 0 0)
(0 4.88602e-16 0)
(0 0 0)
(-4.18802e-16 4.88602e-16 0)
(0 5.58403e-16 0)
(0 0 0)
(-2.37321e-15 2.79201e-16 0)
(4.18802e-16 0 0)
(2.37321e-15 4.88602e-16 0)
(0 0 0)
(0 2.79201e-16 0)
(-6.98003e-16 0 0)
(-1.67521e-15 -1.39601e-16 0)
(5.58403e-16 6.28203e-16 0)
(1.81481e-15 0 0)
(0 0 0)
(1.39601e-16 4.88602e-16 0)
(-1.53561e-15 0 0)
(-2.79201e-16 6.28203e-16 0)
(1.67521e-15 4.88602e-16 0)
(-4.18802e-16 4.88602e-16 0)
(-2.37321e-15 2.79201e-16 0)
(4.18802e-16 6.28203e-16 0)
(2.37321e-15 2.79201e-16 0)
(-1.81481e-15 -2.09401e-16 0)
(-2.37321e-15 6.28203e-16 0)
(1.81481e-15 6.28203e-16 0)
(2.37321e-15 6.98003e-17 0)
(-2.79201e-16 4.88602e-16 0)
(-1.53561e-15 4.88602e-16 0)
(4.18802e-16 -2.09401e-16 0)
(1.53561e-15 5.58403e-16 0)
(-1.39601e-16 4.88602e-16 0)
(-2.37321e-15 6.98003e-17 0)
(0 1.39601e-16 0)
(2.37321e-15 -1.39601e-16 0)
(0 0 0)
(0 4.88602e-16 0)
(0 -2.09401e-16 0)
(-2.37321e-15 -6.98003e-17 0)
(0 -3.49002e-16 0)
(2.37321e-15 0 0)
(0 -6.98003e-17 0)
(-2.37321e-15 -2.09401e-16 0)
(-1.39601e-16 0 0)
(2.23361e-15 0 0)
(2.79201e-16 4.88602e-16 0)
(0 -6.98003e-16 0)
(-2.37321e-15 -1.39601e-16 0)
(-1.39601e-16 0 0)
(2.23361e-15 0 0)
(-1.39601e-15 0 0)
(2.79201e-16 1.39601e-16 0)
(1.39601e-15 3.49002e-16 0)
(0 -6.98003e-16 0)
(-2.37321e-15 4.18802e-16 0)
(-4.18802e-16 4.18802e-16 0)
(2.37321e-15 -6.98003e-17 0)
(4.18802e-16 1.39601e-16 0)
(0 -3.49002e-16 0)
(0 -6.98003e-17 0)
(-2.79201e-16 4.88602e-16 0)
(2.79201e-16 0 0)
(4.18802e-16 6.28203e-16 0)
(-2.79201e-16 -7.67804e-16 0)
(-1.39601e-16 0 0)
(0 -1.39601e-16 0)
(-2.37321e-15 -6.98003e-17 0)
(0 -9.07404e-16 0)
(2.09401e-15 0 0)
(-1.39601e-16 0 0)
(-1.41589e-16 0 0)
(0 -1.06192e-15 0)
(1.41589e-16 -7.78742e-16 0)
(0 -9.20332e-16 0)
(0 -9.20332e-16 0)
(-5.66358e-16 -1.13272e-15 0)
(0 -2.12384e-16 0)
(5.66358e-16 0 0)
(0 -9.91126e-16 0)
(-1.41589e-16 -1.06192e-15 0)
(0 -9.20332e-16 0)
(1.41589e-16 -1.13272e-15 0)
(-5.66358e-16 -1.41589e-16 0)
(1.41589e-16 -4.24768e-16 0)
(0 -9.91126e-16 0)
(-8.49537e-16 0 0)
(4.24768e-16 -7.78742e-16 0)
(7.07947e-16 -1.13272e-15 0)
(0 0 0)
(0 -7.07947e-16 0)
(1.41589e-16 -8.49537e-16 0)
(-5.66358e-16 -9.91126e-16 0)
(0 -8.49537e-16 0)
(4.24768e-16 -7.07947e-16 0)
(0 -5.66358e-16 0)
(1.41589e-16 -1.41589e-16 0)
(0 -1.41589e-16 0)
(0 -8.49537e-16 0)
(0 -1.41589e-16 0)
(0 -8.49537e-16 0)
(0 0 0)
(0 -1.41589e-16 0)
(0 -1.41589e-16 0)
(0 0 0)
(-5.66358e-16 -8.49537e-16 0)
(0 7.07947e-17 0)
(5.66358e-16 7.07947e-16 0)
(0 -7.07947e-17 0)
(-5.66358e-16 0 0)
(0 -1.41589e-16 0)
(4.24768e-16 -8.49537e-16 0)
(0 2.83179e-16 0)
(1.41589e-16 3.53974e-16 0)
(0 -8.49537e-16 0)
(0 0 0)
(0 -1.41589e-16 0)
(0 -1.13272e-15 0)
(0 4.24768e-16 0)
(0 0 0)
(-5.66358e-16 -8.49537e-16 0)
(0 2.12384e-16 0)
(0 9.91126e-16 0)
(-7.07947e-16 0 0)
(7.07947e-16 -9.20332e-16 0)
(5.66358e-16 5.66358e-16 0)
(0 6.37153e-16 0)
(0 -2.83179e-16 0)
(0 -1.41589e-16 0)
(-5.66358e-16 0 0)
(0 -3.53974e-16 0)
(5.66358e-16 -2.12384e-16 0)
(0 0 0)
(0 0 0)
(-5.66358e-16 8.49537e-16 0)
(0 0 0)
(5.66358e-16 -2.12384e-16 0)
(-5.66358e-16 1.41589e-16 0)
(-5.66358e-16 2.12384e-16 0)
(-1.84066e-15 0 0)
(7.07947e-16 7.78742e-16 0)
(1.84066e-15 1.41589e-16 0)
(-7.07947e-16 -2.12384e-16 0)
(5.66358e-16 -9.20332e-16 0)
(5.66358e-16 7.07947e-16 0)
(0 0 0)
(-1.84066e-15 1.41589e-16 0)
(-4.24768e-16 1.41589e-16 0)
(1.69907e-15 0 0)
(4.24768e-16 9.91126e-16 0)
(1.41589e-16 -7.78742e-16 0)
(0 0 0)
(-4.24768e-16 2.12384e-16 0)
(-1.55748e-15 0 0)
(1.41589e-16 1.41589e-16 0)
(1.27431e-15 -9.20332e-16 0)
(0 7.07947e-16 0)
(-5.66358e-16 -7.78742e-16 0)
(-1.98225e-15 0 0)
(7.07947e-16 0 0)
(2.26543e-15 0 0)
(1.41589e-16 0 0)
(-5.66358e-16 0 0)
(-2.40702e-15 -7.07947e-17 0)
(7.07947e-16 -1.41589e-16 0)
(1.84066e-15 1.41589e-16 0)
(-4.24768e-16 2.83179e-16 0)
(-1.84066e-15 0 0)
(4.24768e-16 9.20332e-16 0)
(2.26543e-15 0 0)
(0 7.07947e-17 0)
(-2.29771e-15 0 0)
(-1.72328e-15 1.43607e-16 0)
(1.43607e-16 7.18033e-17 0)
(-7.18033e-16 0 0)
(0 0 0)
(1.86689e-15 0 0)
(2.29771e-15 2.87213e-16 0)
(-1.86689e-15 0 0)
(-2.29771e-15 0 0)
(0 0 0)
(0 7.18033e-17 0)
(2.29771e-15 7.18033e-17 0)
(4.3082e-16 0 0)
(-2.1541e-15 4.3082e-16 0)
(1.57967e-15 0 0)
(5.74427e-16 3.59017e-16 0)
(-2.1541e-15 9.33443e-16 0)
(1.72328e-15 1.43607e-16 0)
(4.3082e-16 0 0)
(-2.1541e-15 2.1541e-16 0)
(-5.74427e-16 1.43607e-16 0)
(5.74427e-16 0 0)
(5.74427e-16 5.02623e-16 0)
(0 7.18033e-17 0)
(1.43607e-15 2.1541e-16 0)
(1.14885e-15 0 0)
(-1.86689e-15 0 0)
(0 0 0)
(0 0 0)
(4.3082e-16 0 0)
(1.86689e-15 0 0)
(-4.3082e-16 0 0)
(0 0 0)
(-1.86689e-15 0 0)
(2.87213e-16 0 0)
(1.72328e-15 2.87213e-16 0)
(0 0 0)
(5.74427e-16 0 0)
(0 0 0)
(-2.29771e-15 2.87213e-16 0)
(1.43607e-16 0 0)
(1.57967e-15 7.18033e-17 0)
(-2.1541e-15 0 0)
(5.74427e-16 1.43607e-16 0)
(1.86689e-15 0 0)
(-2.44131e-15 0 0)
(0 1.43607e-16 0)
(2.44131e-15 0 0)
(-1.86689e-15 0 0)
(0 0 0)
(2.58492e-15 2.1541e-16 0)
(0 0 0)
(-2.58492e-15 2.1541e-16 0)
(0 2.87213e-16 0)
(1.57967e-15 0 0)
(-5.74427e-16 0 0)
(1.43607e-16 0 0)
(4.3082e-16 0 0)
(-1.72328e-15 0 0)
(0 2.87213e-16 0)
(2.29771e-15 0 0)
(1.43607e-16 2.1541e-16 0)
(0 0 0)
(0 2.1541e-16 0)
(-7.18033e-16 2.1541e-16 0)
(2.87213e-16 0 0)
(1.29246e-15 0 0)
(-1.43607e-16 5.02623e-16 0)
(-1.14885e-15 1.43607e-16 0)
(2.87213e-16 9.33443e-16 0)
(0 0 0)
(-2.58492e-15 2.87213e-16 0)
(0 3.59017e-16 0)
(2.01049e-15 0 0)
(7.18033e-16 0 0)
(2.87213e-16 0 0)
(-2.87213e-16 5.74427e-16 0)
(2.87213e-16 1.43607e-16 0)
(-2.29771e-15 1.43607e-16 0)
(-2.87213e-16 8.6164e-16 0)
(1.57967e-15 0 0)
(0 0 0)
(7.18033e-16 1.43607e-16 0)
(-2.29771e-15 5.74427e-16 0)
(-4.3082e-16 1.43607e-16 0)
(0 2.1541e-16 0)
(4.3082e-16 1.43607e-16 0)
(2.29771e-15 3.59017e-16 0)
(0 8.6164e-16 0)
(0 7.18033e-17 0)
(-1.43607e-16 0 0)
(0 7.18033e-17 0)
(1.43607e-16 2.1541e-16 0)
(2.87213e-16 9.33443e-16 0)
(5.74427e-16 0 0)
(-1.43607e-16 4.3082e-16 0)
(-7.18033e-16 1.43607e-16 0)
(0 1.07705e-15 0)
(0 4.3082e-16 0)
(0 1.43607e-16 0)
(0 -2.91305e-16 0)
(0 6.55436e-16 0)
(0 5.09784e-16 0)
(0 8.01089e-16 0)
(0 4.36958e-16 0)
(0 9.46741e-16 0)
(0 -7.28263e-16 0)
(0 -2.18479e-16 0)
(0 7.28263e-16 0)
(0 3.64131e-16 0)
(1.45653e-16 7.28263e-16 0)
(0 9.46741e-16 0)
(-1.45653e-16 0 0)
(0 7.28263e-17 0)
(1.45653e-16 8.01089e-16 0)
(1.45653e-15 0 0)
(0 6.55436e-16 0)
(-1.60218e-15 8.73915e-16 0)
(0 -5.09784e-16 0)
(4.36958e-16 7.28263e-17 0)
(0 6.55436e-16 0)
(-2.91305e-16 3.64131e-16 0)
(0 7.28263e-17 0)
(-1.45653e-16 6.55436e-16 0)
(0 5.8261e-16 0)
(0 -3.64131e-16 0)
(0 1.45653e-16 0)
(0 3.64131e-16 0)
(0 -3.64131e-16 0)
(0 0 0)
(0 -2.18479e-16 0)
(0 -3.64131e-16 0)
(0 1.45653e-16 0)
(0 -7.28263e-17 0)
(0 3.64131e-16 0)
(0 -1.45653e-16 0)
(0 1.45653e-16 0)
(0 -7.28263e-17 0)
(0 0 0)
(0 -1.45653e-16 0)
(0 6.55436e-16 0)
(0 -8.73915e-16 0)
(4.36958e-16 2.18479e-16 0)
(0 9.46741e-16 0)
(-4.36958e-16 -8.73915e-16 0)
(0 -7.28263e-17 0)
(0 6.55436e-16 0)
(0 -7.28263e-16 0)
(0 -5.09784e-16 0)
(0 8.73915e-16 0)
(0 0 0)
(0 -6.55436e-16 0)
(0 -5.09784e-16 0)
(0 3.64131e-16 0)
(0 -5.09784e-16 0)
(0 -2.91305e-16 0)
(0 -7.28263e-17 0)
(0 1.45653e-16 0)
(0 -4.36958e-16 0)
(0 8.73915e-16 0)
(4.36958e-16 -7.28263e-17 0)
(0 -5.8261e-16 0)
(0 0 0)
(0 0 0)
(-4.36958e-16 0 0)
(0 2.18479e-16 0)
(4.36958e-16 -1.45653e-16 0)
(0 -2.91305e-16 0)
(-4.36958e-16 -3.64131e-16 0)
(0 1.45653e-16 0)
(1.45653e-16 -6.55436e-16 0)
(2.91305e-16 0 0)
(-2.91305e-16 9.46741e-16 0)
(-1.45653e-16 1.45653e-16 0)
(0 -1.45653e-16 0)
(0 -6.55436e-16 0)
(0 0 0)
(0 0 0)
(2.18479e-15 -6.55436e-16 0)
(0 8.01089e-16 0)
(-2.18479e-15 0 0)
(0 2.91305e-16 0)
(0 0 0)
(0 -5.09784e-16 0)
(0 8.73915e-16 0)
(0 0 0)
(0 8.73915e-16 0)
(0 -1.45653e-16 0)
(0 -5.09784e-16 0)
(0 5.09784e-16 0)
(1.45653e-16 -1.45653e-16 0)
(0 1.45653e-16 0)
(-1.45653e-16 5.09784e-16 0)
(0 -3.64131e-16 0)
(5.8261e-16 -1.45653e-16 0)
(0 -8.01089e-16 0)
(-1.45653e-16 0 0)
(8.73915e-16 0 0)
(-1.45653e-16 -2.18479e-16 0)
(-7.28263e-16 -5.8261e-16 0)
(0 0 0)
(2.95455e-16 -3.69319e-16 0)
(0 -4.43183e-16 0)
(-8.86365e-16 -3.69319e-16 0)
(4.43183e-16 -6.64774e-16 0)
(-8.86365e-16 0 0)
(-4.43183e-16 -9.60229e-16 0)
(1.77273e-15 -8.86365e-16 0)
(-8.86365e-16 -6.64774e-16 0)
(0 -7.38638e-17 0)
(1.32955e-15 -8.86365e-16 0)
(4.43183e-16 -4.43183e-16 0)
(-1.32955e-15 -2.21591e-16 0)
(-2.95455e-16 -3.69319e-16 0)
(1.47728e-15 -7.38638e-16 0)
(1.47728e-16 -5.17046e-16 0)
(0 -1.18182e-15 0)
(-1.32955e-15 -7.38638e-16 0)
(-1.32955e-15 -7.38638e-17 0)
(8.86365e-16 0 0)
(-2.95455e-16 -1.47728e-16 0)
(-5.9091e-16 -9.60229e-16 0)
(1.32955e-15 -1.47728e-16 0)
(1.32955e-15 -7.38638e-17 0)
(-1.32955e-15 0 0)
(0 -6.64774e-16 0)
(0 -5.9091e-16 0)
(-1.32955e-15 0 0)
(-1.03409e-15 -3.69319e-16 0)
(7.38638e-16 -3.69319e-16 0)
(8.86365e-16 0 0)
(7.38638e-16 -6.64774e-16 0)
(7.38638e-16 -2.21591e-16 0)
(-1.47728e-15 0 0)
(0 -3.69319e-16 0)
(1.47728e-15 -9.60229e-16 0)
(1.47728e-16 -2.21591e-16 0)
(0 -2.21591e-16 0)
(-1.47728e-16 -2.21591e-16 0)
(-5.9091e-16 -2.21591e-16 0)
(-1.77273e-15 -8.12501e-16 0)
(7.38638e-16 -5.9091e-16 0)
(2.21591e-15 -4.43183e-16 0)
(-2.21591e-15 -2.21591e-16 0)
(-7.38638e-16 -3.69319e-16 0)
(1.77273e-15 -6.64774e-16 0)
(-1.77273e-15 -4.43183e-16 0)
(-7.38638e-16 0 0)
(2.36364e-15 -6.64774e-16 0)
(1.32955e-15 -4.43183e-16 0)
(-1.32955e-15 -5.9091e-16 0)
(-1.32955e-15 -6.64774e-16 0)
(0 -7.38638e-17 0)
(0 -9.60229e-16 0)
(0 -6.64774e-16 0)
(4.43183e-16 -2.95455e-16 0)
(1.32955e-15 -3.69319e-16 0)
(-4.43183e-16 -7.38638e-17 0)
(0 -9.60229e-16 0)
(8.86365e-16 -2.21591e-16 0)
(-1.32955e-15 -9.60229e-16 0)
(4.43183e-16 -5.17046e-16 0)
(1.32955e-15 -8.86365e-16 0)
(0 -2.95455e-16 0)
(0 -8.86365e-16 0)
(0 -2.21591e-16 0)
(0 -2.21591e-16 0)
(-8.86365e-16 -8.12501e-16 0)
(0 -3.69319e-16 0)
(-4.43183e-16 -3.69319e-16 0)
(-4.43183e-16 -2.95455e-16 0)
(1.32955e-15 -7.38638e-16 0)
(4.43183e-16 -1.47728e-16 0)
(-5.9091e-16 0 0)
(-1.47728e-15 0 0)
(7.38638e-16 -9.60229e-16 0)
(1.32955e-15 -2.21591e-16 0)
(-1.32955e-15 -2.21591e-16 0)
(-4.43183e-16 -9.60229e-16 0)
(1.32955e-15 -1.25568e-15 0)
(4.43183e-16 0 0)
(0 -7.38638e-17 0)
(-1.32955e-15 -2.21591e-16 0)
(0 -9.60229e-16 0)
(8.86365e-16 -7.38638e-17 0)
(0 -9.60229e-16 0)
(0 -2.21591e-16 0)
(-1.32955e-15 -6.64774e-16 0)
(1.625e-15 -7.38638e-17 0)
(8.86365e-16 -9.60229e-16 0)
(-1.18182e-15 -2.95455e-16 0)
(1.625e-15 -1.03409e-15 0)
(-8.86365e-16 -2.95455e-16 0)
(-1.18182e-15 -9.60229e-16 0)
(-4.43183e-16 -5.9091e-16 0)
(0 -5.9091e-16 0)
(1.32955e-15 -8.86365e-16 0)
(-4.43183e-16 -5.9091e-16 0)
(-1.32955e-15 -6.64774e-16 0)
(-8.86365e-16 -2.95455e-16 0)
(-8.98993e-16 2.99664e-16 0)
(-5.99328e-16 2.99664e-16 0)
(0 2.24748e-16 0)
(-4.49496e-16 7.49161e-17 0)
(8.98993e-16 5.24412e-16 0)
(-8.98993e-16 -7.49161e-17 0)
(-2.39731e-15 6.74244e-16 0)
(8.98993e-16 1.49832e-16 0)
(1.94782e-15 2.99664e-16 0)
(-7.49161e-16 4.49496e-16 0)
(-7.49161e-16 1.49832e-16 0)
(1.64815e-15 -2.24748e-16 0)
(0 -1.49832e-16 0)
(-1.19866e-15 5.24412e-16 0)
(0 7.49161e-17 0)
(5.99328e-16 -7.49161e-17 0)
(-1.04882e-15 7.49161e-17 0)
(1.19866e-15 0 0)
(1.79799e-15 1.49832e-16 0)
(0 5.24412e-16 0)
(-2.24748e-15 1.49832e-16 0)
(0 4.49496e-16 0)
(2.09765e-15 5.24412e-16 0)
(1.49832e-16 -7.49161e-17 0)
(-1.04882e-15 -3.7458e-16 0)
(-1.64815e-15 6.74244e-16 0)
(1.64815e-15 -8.98993e-16 0)
(4.49496e-16 1.49832e-16 0)
(-8.98993e-16 3.7458e-16 0)
(8.98993e-16 5.24412e-16 0)
(-4.49496e-16 -1.49832e-16 0)
(-7.49161e-16 6.74244e-16 0)
(1.34849e-15 -2.99664e-16 0)
(-1.49832e-16 -5.99328e-16 0)
(-2.39731e-15 0 0)
(2.99664e-16 -5.99328e-16 0)
(1.79799e-15 -1.49832e-16 0)
(0 2.24748e-16 0)
(0 0 0)
(-1.04882e-15 2.99664e-16 0)
(-1.19866e-15 -1.49832e-16 0)
(8.98993e-16 0 0)
(1.64815e-15 7.49161e-17 0)
(-2.99664e-16 -3.7458e-16 0)
(-1.34849e-15 8.98993e-16 0)
(2.99664e-16 3.7458e-16 0)
(1.34849e-15 -4.49496e-16 0)
(-4.49496e-16 8.24077e-16 0)
(-1.19866e-15 6.74244e-16 0)
(0 -8.24077e-16 0)
(-4.49496e-16 -2.99664e-16 0)
(1.19866e-15 5.99328e-16 0)
(-7.49161e-16 1.49832e-16 0)
(-1.19866e-15 5.99328e-16 0)
(1.64815e-15 5.99328e-16 0)
(4.49496e-16 5.99328e-16 0)
(4.49496e-16 7.49161e-17 0)
(-1.34849e-15 -3.7458e-16 0)
(-4.49496e-16 5.99328e-16 0)
(0 -1.49832e-16 0)
(-2.99664e-16 -7.49161e-17 0)
(0 2.99664e-16 0)
(7.49161e-16 0 0)
(0 0 0)
(-4.49496e-16 0 0)
(1.64815e-15 -1.49832e-16 0)
(-7.49161e-16 0 0)
(-4.49496e-16 -2.99664e-16 0)
(7.49161e-16 7.49161e-17 0)
(1.49832e-16 -7.49161e-17 0)
(-5.99328e-16 5.99328e-16 0)
(5.99328e-16 -7.49161e-17 0)
(1.64815e-15 -7.49161e-17 0)
(0 -7.49161e-17 0)
(-2.24748e-15 7.49161e-17 0)
(-7.49161e-16 2.99664e-16 0)
(1.64815e-15 0 0)
(-1.64815e-15 0 0)
(0 2.99664e-16 0)
(2.24748e-15 7.49161e-17 0)
(4.49496e-16 -7.49161e-17 0)
(-5.99328e-16 -2.99664e-16 0)
(-2.09765e-15 -1.49832e-16 0)
(4.49496e-16 4.49496e-16 0)
(0 -7.49161e-17 0)
(-4.49496e-16 2.24748e-16 0)
(7.49161e-16 0 0)
(4.49496e-16 7.49161e-17 0)
(-7.49161e-16 5.24412e-16 0)
(-4.49496e-16 -7.49161e-16 0)
(0 -1.49832e-16 0)
(0 -1.49832e-16 0)
(0 -5.99328e-16 0)
(-8.98993e-16 -2.99664e-16 0)
(1.79799e-15 -2.99664e-16 0)
(-8.98993e-16 5.99328e-16 0)
(-2.99664e-16 -2.99664e-16 0)
(1.64815e-15 -7.49161e-17 0)
(2.99664e-16 7.49161e-17 0)
(1.49832e-16 3.7458e-16 0)
(0 0 0)
(0 -6.07867e-16 0)
(-1.51967e-16 -6.07867e-16 0)
(-3.03933e-16 -6.8385e-16 0)
(0 -4.559e-16 0)
(-4.559e-16 -1.06377e-15 0)
(3.03933e-16 -2.2795e-16 0)
(6.07867e-16 -7.59833e-17 0)
(-1.51967e-16 -4.559e-16 0)
(0 -9.87783e-16 0)
(-3.03933e-16 -7.59833e-17 0)
(-4.559e-16 -7.59833e-16 0)
(7.59833e-16 -7.59833e-16 0)
(1.51967e-16 -5.31883e-16 0)
(-1.51967e-16 -1.51967e-16 0)
(0 -6.07867e-16 0)
(1.51967e-16 -3.79917e-16 0)
(-6.07867e-16 -4.559e-16 0)
(0 -8.35817e-16 0)
(6.07867e-16 -9.118e-16 0)
(-1.51967e-16 -8.35817e-16 0)
(0 0 0)
(0 -8.35817e-16 0)
(-7.59833e-16 -9.118e-16 0)
(0 -9.118e-16 0)
(-1.06377e-15 -6.8385e-16 0)
(-7.59833e-16 -3.03933e-16 0)
(1.3677e-15 -9.118e-16 0)
(0 -9.118e-16 0)
(-1.51967e-16 -5.31883e-16 0)
(9.118e-16 0 0)
(0 -3.79917e-16 0)
(-2.12753e-15 -9.87783e-16 0)
(-4.559e-16 -9.87783e-16 0)
(0 -6.07867e-16 0)
(9.118e-16 0 0)
(2.12753e-15 0 0)
(1.51967e-16 -7.59833e-16 0)
(0 -6.8385e-16 0)
(-1.3677e-15 -7.59833e-16 0)
(-1.8236e-15 -5.31883e-16 0)
(1.21573e-15 -3.03933e-16 0)
(1.06377e-15 -5.31883e-16 0)
(0 -1.21573e-15 0)
(9.118e-16 -8.35817e-16 0)
(-1.8236e-15 -6.8385e-16 0)
(0 -3.03933e-16 0)
(1.67163e-15 -9.87783e-16 0)
(-1.8236e-15 -3.79917e-16 0)
(-7.59833e-16 1.51967e-16 0)
(1.8236e-15 -3.79917e-16 0)
(0 -4.559e-16 0)
(0 7.59833e-17 0)
(7.59833e-16 0 0)
(0 -4.559e-16 0)
(-4.559e-16 -6.8385e-16 0)
(-7.59833e-16 2.2795e-16 0)
(4.559e-16 -8.35817e-16 0)
(7.59833e-16 0 0)
(-7.59833e-16 -6.8385e-16 0)
(-6.07867e-16 6.8385e-16 0)
(9.118e-16 -2.2795e-16 0)
(6.07867e-16 6.8385e-16 0)
(0 -8.35817e-16 0)
(-1.51967e-16 0 0)
(0 1.51967e-16 0)
(-4.559e-16 1.51967e-16 0)
(-7.59833e-16 5.31883e-16 0)
(4.559e-16 3.03933e-16 0)
(7.59833e-16 -6.07867e-16 0)
(-7.59833e-16 -6.8385e-16 0)
(0 4.559e-16 0)
(4.559e-16 -9.87783e-16 0)
(0 -9.87783e-16 0)
(-6.07867e-16 -9.87783e-16 0)
(4.559e-16 7.59833e-16 0)
(6.07867e-16 2.2795e-16 0)
(-6.07867e-16 2.2795e-16 0)
(-4.559e-16 8.35817e-16 0)
(6.07867e-16 3.03933e-16 0)
(-4.559e-16 0 0)
(0 -7.59833e-17 0)
(4.559e-16 -6.8385e-16 0)
(0 6.8385e-16 0)
(3.03933e-16 7.59833e-17 0)
(1.51967e-16 9.118e-16 0)
(-1.51967e-16 7.59833e-17 0)
(0 -3.79917e-16 0)
(-4.559e-16 -8.35817e-16 0)
(-9.118e-16 8.35817e-16 0)
(4.559e-16 7.59833e-17 0)
(6.07867e-16 9.118e-16 0)
(-1.3677e-15 -7.59833e-16 0)
(-6.07867e-16 -7.59833e-17 0)
(1.51967e-15 6.8385e-16 0)
(3.03933e-16 7.59833e-17 0)
(-4.559e-16 3.79917e-16 0)
(6.07867e-16 3.79917e-16 0)
(0 -7.59833e-16 0)
(-1.51967e-16 3.03933e-16 0)
(-2.31197e-15 0 0)
(-2.15784e-15 0 0)
(-3.08263e-16 0 0)
(0 1.54132e-16 0)
(-1.54132e-16 7.70658e-17 0)
(0 7.70658e-17 0)
(0 6.93592e-16 0)
(0 0 0)
(0 3.08263e-16 0)
(0 3.85329e-16 0)
(0 1.54132e-16 0)
(0 3.08263e-16 0)
(4.62395e-16 2.31197e-16 0)