/*--------------------------------*- C++ -*----------------------------------*\
| =========                 |                                                 |
| \\      /  F ield         | OpenFOAM: The Open Source CFD Toolbox           |
|  \\    /   O peration     | Version:  2406                                  |
|   \\  /    A nd           | Website:  www.openfoam.com                      |
|    \\/     M anipulation  |                                                 |
\*---------------------------------------------------------------------------*/
FoamFile
{
    version     2.0;
    format      ascii;
    arch        "LSB;label=32;scalar=64";
    class       volScalarField;
    location    "6.45";
    object      gradTx;
}
// * * * * * * * * * * * * * * * * * * * * * * * * * * * * * * * * * * * * * //

dimensions      [0 -1 0 1 0 0 0];

internalField   nonuniform List<scalar> 
100
(
-5.24288e+09
-1.15343e+10
-2.09715e+09
1.04858e+09
-1.36315e+10
-8.38861e+09
6.29146e+09
5.24288e+09
5.24288e+09
5.24288e+09
-1.04858e+09
-3.14573e+09
7.34003e+09
0
-1.99229e+10
-9.43718e+09
5.24288e+09
5.24288e+09
4.1943e+09
5.24288e+09
4.1943e+09
1.25829e+10
1.25829e+10
-6.29146e+09
-2.30687e+10
-9.43718e+09
5.24288e+09
7.34003e+09
4.1943e+09
0
4.1943e+09
7.34003e+09
5.24288e+09
-4.1943e+09
-1.25829e+10
-9.43718e+09
-5.24288e+09
5.24288e+09
7.34003e+09
1.04858e+09
1.04858e+09
-2.09715e+09
2.09715e+09
-5.24288e+09
-1.67772e+10
-8.38861e+09
2.09715e+09
1.15343e+10
2.09715e+09
-6.29146e+09
2.09715e+09
-1.04858e+09
-1.04858e+09
-4.1943e+09
-6.29146e+09
-5.24288e+09
2.09715e+09
1.04858e+10
-2.09715e+09
-6.29146e+09
3.14573e+09
0
-1.04858e+09
-1.04858e+09
-5.24288e+09
-5.24288e+09
-4.1943e+09
-4.1943e+09
-6.29146e+09
-5.24288e+09
4.1943e+09
0
-6.29146e+09
-5.24288e+09
-5.24288e+09
-5.24288e+09
-2.09715e+09
-2.09715e+09
-1.67772e+10
-1.25829e+10
7.34003e+09
3.14573e+09
-9.43718e+09
-9.43718e+09
-6.29146e+09
-6.29146e+09
-7.34003e+09
-1.15343e+10
-2.41172e+10
-1.67772e+10
2.09715e+09
-3.14573e+09
-7.34003e+09
-8.38861e+09
-1.15343e+10
-8.38861e+09
-8.38861e+09
-2.20201e+10
-2.09715e+10
-6.29146e+09
)
;

boundaryField
{
    left
    {
        type            calculated;
        value           uniform 0;
    }
    right
    {
        type            calculated;
        value           uniform 0;
    }
    top
    {
        type            calculated;
        value           nonuniform List<scalar> 10(2.09715e+09 -3.14573e+09 -7.34003e+09 -8.38861e+09 -1.15343e+10 -8.38861e+09 -8.38861e+09 -2.20201e+10 -2.09715e+10 -6.29146e+09);
    }
    bottom
    {
        type            calculated;
        value           nonuniform List<scalar> 10(-5.24288e+09 -1.15343e+10 -2.09715e+09 1.04858e+09 -1.36315e+10 -8.38861e+09 6.29146e+09 5.24288e+09 5.24288e+09 5.24288e+09);
    }
    defaultFaces
    {
        type            empty;
    }
}


// ************************************************************************* //
