/*--------------------------------*- C++ -*----------------------------------*\
| =========                 |                                                 |
| \\      /  F ield         | OpenFOAM: The Open Source CFD Toolbox           |
|  \\    /   O peration     | Version:  2406                                  |
|   \\  /    A nd           | Website:  www.openfoam.com                      |
|    \\/     M anipulation  |                                                 |
\*---------------------------------------------------------------------------*/
FoamFile
{
    version     2.0;
    format      ascii;
    arch        "LSB;label=32;scalar=64";
    class       volScalarField;
    location    "6.45";
    object      gradTy;
}
// * * * * * * * * * * * * * * * * * * * * * * * * * * * * * * * * * * * * * //

dimensions      [0 -1 0 1 0 0 0];

internalField   nonuniform List<scalar> 
100
(
-6.29146e+09
-1.04858e+09
2.09715e+09
6.29146e+09
2.09715e+09
1.04858e+09
0
0
-1.04858e+09
0
-1.25829e+10
-3.14573e+09
1.25829e+10
1.25829e+10
4.1943e+09
2.09715e+09
4.1943e+09
1.04858e+09
6.29146e+09
0
0
4.1943e+09
8.38861e+09
4.1943e+09
5.24288e+09
1.04858e+10
5.24288e+09
0
6.29146e+09
2.09715e+09
9.43718e+09
6.29146e+09
-4.1943e+09
-5.24288e+09
-4.1943e+09
2.09715e+09
-2.09715e+09
-2.09715e+09
3.14573e+09
-3.14573e+09
0
-3.14573e+09
-8.38861e+09
-1.04858e+10
-7.34003e+09
-4.1943e+09
-3.14573e+09
4.1943e+09
1.04858e+09
-6.29146e+09
0
3.14573e+09
2.09715e+09
0
7.34003e+09
1.15343e+10
9.43718e+09
3.14573e+09
-5.24288e+09
-4.1943e+09
1.36315e+10
1.57286e+10
1.46801e+10
1.04858e+10
1.36315e+10
1.25829e+10
1.25829e+10
8.38861e+09
0
-6.29146e+09
1.25829e+10
1.67772e+10
1.67772e+10
8.38861e+09
6.29146e+09
7.34003e+09
6.29146e+09
5.24288e+09
-2.09715e+09
-1.36315e+10
1.15343e+10
8.38861e+09
7.34003e+09
7.34003e+09
4.1943e+09
0
2.09715e+09
-6.29146e+09
-1.78258e+10
-1.04858e+10
5.24288e+09
-1.04858e+09
0
1.04858e+09
2.09715e+09
-3.14573e+09
-1.04858e+09
-4.1943e+09
-1.15343e+10
-1.04858e+09
)
;

boundaryField
{
    left
    {
        type            calculated;
        value           nonuniform List<scalar> 10(-6.29146e+09 -1.25829e+10 0 9.43718e+09 0 0 1.36315e+10 1.25829e+10 1.15343e+10 5.24288e+09);
    }
    right
    {
        type            calculated;
        value           nonuniform List<scalar> 10(0 0 2.09715e+09 -3.14573e+09 -6.29146e+09 -4.1943e+09 -6.29146e+09 -1.36315e+10 -1.04858e+10 -1.04858e+09);
    }
    top
    {
        type            calculated;
        value           uniform 0;
    }
    bottom
    {
        type            calculated;
        value           uniform 0;
    }
    defaultFaces
    {
        type            empty;
    }
}


// ************************************************************************* //
