/*--------------------------------*- C++ -*----------------------------------*\
| =========                 |                                                 |
| \\      /  F ield         | OpenFOAM: The Open Source CFD Toolbox           |
|  \\    /   O peration     | Version:  2406                                  |
|   \\  /    A nd           | Website:  www.openfoam.com                      |
|    \\/     M anipulation  |                                                 |
\*---------------------------------------------------------------------------*/
FoamFile
{
    version     2.0;
    format      ascii;
    arch        "LSB;label=32;scalar=64";
    class       volScalarField;
    location    "3";
    object      gradTy;
}
// * * * * * * * * * * * * * * * * * * * * * * * * * * * * * * * * * * * * * //

dimensions      [0 -1 0 1 0 0 0];

internalField   nonuniform List<scalar> 
100
(
-2.79397e-06
4.65661e-07
1.39698e-06
3.72529e-06
9.31323e-07
-9.31323e-07
4.65661e-07
4.65661e-07
4.65661e-07
4.65661e-07
-4.65661e-06
-4.65661e-07
4.65661e-06
5.12227e-06
1.39698e-06
9.31323e-07
2.32831e-06
1.39698e-06
3.25963e-06
9.31323e-07
0
9.31323e-07
2.79397e-06
0
4.65661e-07
4.19095e-06
1.86265e-06
-4.65661e-07
2.79397e-06
2.32831e-06
3.72529e-06
2.32831e-06
-1.86265e-06
-4.19095e-06
-1.86265e-06
4.65661e-07
-9.31323e-07
-1.39698e-06
-9.31323e-07
-1.86265e-06
-1.39698e-06
-1.86265e-06
-4.19095e-06
-4.19095e-06
-3.25963e-06
-1.39698e-06
-1.86265e-06
4.65661e-07
1.39698e-06
-3.72529e-06
-1.39698e-06
0
0
0
2.79397e-06
3.72529e-06
2.79397e-06
1.39698e-06
0
-1.86265e-06
2.79397e-06
4.19095e-06
6.51926e-06
3.25963e-06
4.65661e-06
4.65661e-06
3.25963e-06
3.25963e-06
0
-1.39698e-06
5.12227e-06
5.58794e-06
6.51926e-06
4.19095e-06
2.79397e-06
2.32831e-06
2.79397e-06
3.25963e-06
-2.32831e-06
-4.19095e-06
4.65661e-06
2.32831e-06
1.39698e-06
3.25963e-06
1.86265e-06
-9.31323e-07
1.86265e-06
-1.39698e-06
-6.98492e-06
-2.79397e-06
1.39698e-06
-4.65661e-07
0
9.31323e-07
-4.65661e-07
-1.86265e-06
4.65661e-07
-1.86265e-06
-3.72529e-06
4.65661e-07
)
;

boundaryField
{
    left
    {
        type            calculated;
        value           nonuniform List<scalar> 10(-2.79397e-06 -4.65661e-06 0 3.72529e-06 -1.39698e-06 -1.39698e-06 2.79397e-06 5.12227e-06 4.65661e-06 1.39698e-06);
    }
    right
    {
        type            calculated;
        value           nonuniform List<scalar> 10(4.65661e-07 9.31323e-07 2.32831e-06 -1.86265e-06 -3.72529e-06 -1.86265e-06 -1.39698e-06 -4.19095e-06 -2.79397e-06 4.65661e-07);
    }
    top
    {
        type            calculated;
        value           uniform 0;
    }
    bottom
    {
        type            calculated;
        value           uniform 0;
    }
    defaultFaces
    {
        type            empty;
    }
}


// ************************************************************************* //
