/*--------------------------------*- C++ -*----------------------------------*\
| =========                 |                                                 |
| \\      /  F ield         | OpenFOAM: The Open Source CFD Toolbox           |
|  \\    /   O peration     | Version:  2406                                  |
|   \\  /    A nd           | Website:  www.openfoam.com                      |
|    \\/     M anipulation  |                                                 |
\*---------------------------------------------------------------------------*/
FoamFile
{
    version     2.0;
    format      ascii;
    arch        "LSB;label=32;scalar=64";
    class       volVectorField;
    location    "7.6";
    object      flux;
}
// * * * * * * * * * * * * * * * * * * * * * * * * * * * * * * * * * * * * * //

dimensions      [0 1 -1 1 0 0 0];

internalField   nonuniform List<vector> 
100
(
(-2.74878e+13 -2.74878e+13 0)
(-6.59707e+13 -1.09951e+13 0)
(0 2.19902e+13 0)
(3.84829e+13 3.84829e+13 0)
(-5.49756e+13 5.49756e+12 0)
(-6.59707e+13 -1.09951e+13 0)
(0 -5.49756e+12 0)
(5.49756e+12 0 0)
(1.64927e+13 0 0)
(2.74878e+13 0 0)
(-1.09951e+13 -4.9478e+13 0)
(-2.19902e+13 0 0)
(4.9478e+13 7.69658e+13 0)
(2.19902e+13 6.04731e+13 0)
(-1.04454e+14 0 0)
(-7.14683e+13 5.49756e+12 0)
(1.09951e+13 2.74878e+13 0)
(5.49756e+12 1.64927e+13 0)
(1.64927e+13 3.84829e+13 0)
(2.74878e+13 5.49756e+12 0)
(2.74878e+13 3.84829e+13 0)
(5.49756e+13 5.49756e+13 0)
(6.04731e+13 6.59707e+13 0)
(-3.29853e+13 1.64927e+13 0)
(-1.15449e+14 1.64927e+13 0)
(-3.84829e+13 4.9478e+13 0)
(2.19902e+13 2.74878e+13 0)
(1.09951e+13 1.09951e+13 0)
(-5.49756e+12 2.74878e+13 0)
(0 5.49756e+12 0)
(0 8.79609e+13 0)
(1.09951e+13 5.49756e+13 0)
(1.09951e+13 -5.49756e+12 0)
(-3.29853e+13 -2.74878e+13 0)
(-7.14683e+13 -1.64927e+13 0)
(-6.04731e+13 1.64927e+13 0)
(-2.74878e+13 -2.19902e+13 0)
(5.49756e+12 -1.64927e+13 0)
(1.64927e+13 0 0)
(5.49756e+12 -2.74878e+13 0)
(-5.49756e+12 -5.49756e+12 0)
(-3.29853e+13 -5.49756e+12 0)
(-1.09951e+13 -4.39805e+13 0)
(-4.9478e+13 -2.74878e+13 0)
(-7.69658e+13 -3.29853e+13 0)
(-3.84829e+13 5.49756e+12 0)
(-1.64927e+13 -1.09951e+13 0)
(2.74878e+13 0 0)
(-5.49756e+12 1.64927e+13 0)
(-3.29853e+13 -2.19902e+13 0)
(5.49756e+12 -2.19902e+13 0)
(-3.84829e+13 -5.49756e+12 0)
(-2.19902e+13 0 0)
(-1.64927e+13 5.49756e+12 0)
(-3.29853e+13 5.49756e+13 0)
(-3.84829e+13 4.9478e+13 0)
(-3.29853e+13 4.39805e+13 0)
(3.84829e+13 2.19902e+13 0)
(-5.49756e+12 -5.49756e+12 0)
(-3.29853e+13 0 0)
(1.09951e+13 3.29853e+13 0)
(-5.49756e+12 4.9478e+13 0)
(0 7.69658e+13 0)
(5.49756e+12 4.9478e+13 0)
(-2.74878e+13 7.14683e+13 0)
(-5.49756e+13 4.9478e+13 0)
(-4.39805e+13 6.04731e+13 0)
(-2.19902e+13 3.29853e+13 0)
(-2.74878e+13 1.09951e+13 0)
(-2.74878e+13 -1.64927e+13 0)
(1.64927e+13 5.49756e+13 0)
(1.09951e+13 7.69658e+13 0)
(-2.19902e+13 8.79609e+13 0)
(-1.64927e+13 6.04731e+13 0)
(-3.29853e+13 3.84829e+13 0)
(-5.49756e+13 5.49756e+13 0)
(-4.39805e+13 5.49756e+13 0)
(-1.64927e+13 4.9478e+13 0)
(-7.14683e+13 -1.09951e+13 0)
(-5.49756e+13 -5.49756e+13 0)
(3.84829e+13 4.39805e+13 0)
(3.29853e+13 3.29853e+13 0)
(-2.19902e+13 2.19902e+13 0)
(-3.84829e+13 3.29853e+13 0)
(-3.84829e+13 1.64927e+13 0)
(-3.29853e+13 5.49756e+12 0)
(-5.49756e+13 3.29853e+13 0)
(-8.24634e+13 0 0)
(-1.26444e+14 -7.14683e+13 0)
(-6.59707e+13 -3.29853e+13 0)
(5.49756e+12 3.29853e+13 0)
(-1.64927e+13 0 0)
(-1.64927e+13 -1.64927e+13 0)
(-2.74878e+13 5.49756e+12 0)
(-6.59707e+13 -5.49756e+12 0)
(-4.39805e+13 -2.19902e+13 0)
(-4.39805e+13 -1.09951e+13 0)
(-1.20946e+14 -1.64927e+13 0)
(-9.8956e+13 -4.39805e+13 0)
(-1.64927e+13 1.09951e+13 0)
)
;

boundaryField
{
    left
    {
        type            calculated;
        value           nonuniform List<vector> 10((0 -2.74878e+13 0) (0 -4.9478e+13 0) (0 3.84829e+13 0) (0 8.79609e+13 0) (0 -5.49756e+12 0) (0 -2.19902e+13 0) (0 3.29853e+13 0) (0 5.49756e+13 0) (0 4.39805e+13 0) (0 3.29853e+13 0));
    }
    right
    {
        type            calculated;
        value           nonuniform List<vector> 10((0 0 0) (0 5.49756e+12 0) (0 5.49756e+12 0) (0 -2.74878e+13 0) (0 -2.19902e+13 0) (0 0 0) (0 -1.64927e+13 0) (0 -5.49756e+13 0) (0 -3.29853e+13 0) (0 1.09951e+13 0));
    }
    top
    {
        type            calculated;
        value           nonuniform List<vector> 10((5.49756e+12 0 0) (-1.64927e+13 0 0) (-1.64927e+13 0 0) (-2.74878e+13 0 0) (-6.59707e+13 0 0) (-4.39805e+13 0 0) (-4.39805e+13 0 0) (-1.20946e+14 0 0) (-9.8956e+13 0 0) (-1.64927e+13 0 0));
    }
    bottom
    {
        type            calculated;
        value           nonuniform List<vector> 10((-2.74878e+13 0 0) (-6.59707e+13 0 0) (0 0 0) (3.84829e+13 0 0) (-5.49756e+13 0 0) (-6.59707e+13 0 0) (0 0 0) (5.49756e+12 0 0) (1.64927e+13 0 0) (2.74878e+13 0 0));
    }
    defaultFaces
    {
        type            empty;
    }
}


// ************************************************************************* //
