/*--------------------------------*- C++ -*----------------------------------*\
| =========                 |                                                 |
| \\      /  F ield         | OpenFOAM: The Open Source CFD Toolbox           |
|  \\    /   O peration     | Version:  2406                                  |
|   \\  /    A nd           | Website:  www.openfoam.com                      |
|    \\/     M anipulation  |                                                 |
\*---------------------------------------------------------------------------*/
FoamFile
{
    version     2.0;
    format      ascii;
    arch        "LSB;label=32;scalar=64";
    class       volVectorField;
    location    "5";
    object      flux;
}
// * * * * * * * * * * * * * * * * * * * * * * * * * * * * * * * * * * * * * //

dimensions      [0 1 -1 1 0 0 0];

internalField   nonuniform List<vector> 
100
(
(-90 -90 0)
(-200 -40 0)
(0 50 0)
(40 90 0)
(-220 50 0)
(-150 30 0)
(30 30 0)
(70 50 0)
(70 10 0)
(70 10 0)
(-30 -190 0)
(-50 -10 0)
(120 220 0)
(40 170 0)
(-300 50 0)
(-160 40 0)
(70 90 0)
(30 80 0)
(40 90 0)
(70 30 0)
(70 40 0)
(180 80 0)
(200 150 0)
(-110 70 0)
(-360 50 0)
(-120 140 0)
(70 90 0)
(70 0 0)
(20 90 0)
(0 60 0)
(10 150 0)
(70 60 0)
(100 -70 0)
(-60 -90 0)
(-200 -40 0)
(-140 70 0)
(-60 -10 0)
(20 -40 0)
(90 30 0)
(50 -50 0)
(-20 -20 0)
(-30 -20 0)
(70 -140 0)
(-100 -120 0)
(-200 -110 0)
(-110 -40 0)
(-30 -80 0)
(100 -10 0)
(20 40 0)
(-70 -110 0)
(30 -20 0)
(-70 20 0)
(10 -20 0)
(-30 20 0)
(-120 70 0)
(-90 90 0)
(-60 90 0)
(150 20 0)
(-30 -40 0)
(-110 -80 0)
(30 130 0)
(-30 170 0)
(40 190 0)
(0 110 0)
(-110 190 0)
(-90 150 0)
(-80 140 0)
(-30 90 0)
(-70 -40 0)
(-100 -90 0)
(50 170 0)
(0 260 0)
(-30 280 0)
(-50 140 0)
(-90 120 0)
(-140 120 0)
(-100 110 0)
(-50 80 0)
(-190 -60 0)
(-180 -140 0)
(110 150 0)
(80 110 0)
(-80 100 0)
(-150 70 0)
(-130 30 0)
(-120 0 0)
(-120 60 0)
(-180 -40 0)
(-300 -210 0)
(-180 -100 0)
(40 80 0)
(-50 10 0)
(-80 -30 0)
(-110 10 0)
(-170 0 0)
(-110 -40 0)
(-140 0 0)
(-320 -50 0)
(-270 -140 0)
(-70 -30 0)
)
;

boundaryField
{
    left
    {
        type            calculated;
        value           nonuniform List<vector> 10((0 -90 0) (0 -190 0) (0 40 0) (0 150 0) (0 -20 0) (0 -20 0) (0 130 0) (0 170 0) (0 150 0) (0 80 0));
    }
    right
    {
        type            calculated;
        value           nonuniform List<vector> 10((0 10 0) (0 30 0) (0 60 0) (0 -50 0) (0 -110 0) (0 -80 0) (0 -90 0) (0 -140 0) (0 -100 0) (0 -30 0));
    }
    top
    {
        type            calculated;
        value           nonuniform List<vector> 10((40 0 0) (-50 0 0) (-80 0 0) (-110 0 0) (-170 0 0) (-110 0 0) (-140 0 0) (-320 0 0) (-270 0 0) (-70 0 0));
    }
    bottom
    {
        type            calculated;
        value           nonuniform List<vector> 10((-90 0 0) (-200 0 0) (0 0 0) (40 0 0) (-220 0 0) (-150 0 0) (30 0 0) (70 0 0) (70 0 0) (70 0 0));
    }
    defaultFaces
    {
        type            empty;
    }
}


// ************************************************************************* //
