/*--------------------------------*- C++ -*----------------------------------*\
| =========                 |                                                 |
| \\      /  F ield         | OpenFOAM: The Open Source CFD Toolbox           |
|  \\    /   O peration     | Version:  2406                                  |
|   \\  /    A nd           | Website:  www.openfoam.com                      |
|    \\/     M anipulation  |                                                 |
\*---------------------------------------------------------------------------*/
FoamFile
{
    version     2.0;
    format      ascii;
    arch        "LSB;label=32;scalar=64";
    class       volScalarField;
    location    "5";
    object      gradTy;
}
// * * * * * * * * * * * * * * * * * * * * * * * * * * * * * * * * * * * * * //

dimensions      [0 -1 0 1 0 0 0];

internalField   nonuniform List<scalar> 
100
(
-2250
-1000
1250
2250
1250
750
750
1250
250
250
-4750
-250
5500
4250
1250
1000
2250
2000
2250
750
1000
2000
3750
1750
1250
3500
2250
0
2250
1500
3750
1500
-1750
-2250
-1000
1750
-250
-1000
750
-1250
-500
-500
-3500
-3000
-2750
-1000
-2000
-250
1000
-2750
-500
500
-500
500
1750
2250
2250
500
-1000
-2000
3250
4250
4750
2750
4750
3750
3500
2250
-1000
-2250
4250
6500
7000
3500
3000
3000
2750
2000
-1500
-3500
3750
2750
2500
1750
750
0
1500
-1000
-5250
-2500
2000
250
-750
250
0
-1000
0
-1250
-3500
-750
)
;

boundaryField
{
    left
    {
        type            calculated;
        value           nonuniform List<scalar> 10(-2250 -4750 1000 3750 -500 -500 3250 4250 3750 2000);
    }
    right
    {
        type            calculated;
        value           nonuniform List<scalar> 10(250 750 1500 -1250 -2750 -2000 -2250 -3500 -2500 -750);
    }
    top
    {
        type            calculated;
        value           uniform 0;
    }
    bottom
    {
        type            calculated;
        value           uniform 0;
    }
    defaultFaces
    {
        type            empty;
    }
}


// ************************************************************************* //
