/*--------------------------------*- C++ -*----------------------------------*\
| =========                 |                                                 |
| \\      /  F ield         | OpenFOAM: The Open Source CFD Toolbox           |
|  \\    /   O peration     | Version:  2406                                  |
|   \\  /    A nd           | Website:  www.openfoam.com                      |
|    \\/     M anipulation  |                                                 |
\*---------------------------------------------------------------------------*/
FoamFile
{
    version     2.0;
    format      ascii;
    arch        "LSB;label=32;scalar=64";
    class       volScalarField;
    location    "5";
    object      gradTx;
}
// * * * * * * * * * * * * * * * * * * * * * * * * * * * * * * * * * * * * * //

dimensions      [0 -1 0 1 0 0 0];

internalField   nonuniform List<scalar> 
100
(
-2250
-5000
0
1000
-5500
-3750
750
1750
1750
1750
-750
-1250
3000
1000
-7500
-4000
1750
750
1000
1750
1750
4500
5000
-2750
-9000
-3000
1750
1750
500
0
250
1750
2500
-1500
-5000
-3500
-1500
500
2250
1250
-500
-750
1750
-2500
-5000
-2750
-750
2500
500
-1750
750
-1750
250
-750
-3000
-2250
-1500
3750
-750
-2750
750
-750
1000
0
-2750
-2250
-2000
-750
-1750
-2500
1250
0
-750
-1250
-2250
-3500
-2500
-1250
-4750
-4500
2750
2000
-2000
-3750
-3250
-3000
-3000
-4500
-7500
-4500
1000
-1250
-2000
-2750
-4250
-2750
-3500
-8000
-6750
-1750
)
;

boundaryField
{
    left
    {
        type            calculated;
        value           uniform 0;
    }
    right
    {
        type            calculated;
        value           uniform 0;
    }
    top
    {
        type            calculated;
        value           nonuniform List<scalar> 10(1000 -1250 -2000 -2750 -4250 -2750 -3500 -8000 -6750 -1750);
    }
    bottom
    {
        type            calculated;
        value           nonuniform List<scalar> 10(-2250 -5000 0 1000 -5500 -3750 750 1750 1750 1750);
    }
    defaultFaces
    {
        type            empty;
    }
}


// ************************************************************************* //
