/*--------------------------------*- C++ -*----------------------------------*\
| =========                 |                                                 |
| \\      /  F ield         | OpenFOAM: The Open Source CFD Toolbox           |
|  \\    /   O peration     | Version:  2406                                  |
|   \\  /    A nd           | Website:  www.openfoam.com                      |
|    \\/     M anipulation  |                                                 |
\*---------------------------------------------------------------------------*/
FoamFile
{
    version     2.0;
    format      ascii;
    arch        "LSB;label=32;scalar=64";
    class       volVectorField;
    location    "4.65";
    object      flux;
}
// * * * * * * * * * * * * * * * * * * * * * * * * * * * * * * * * * * * * * //

dimensions      [0 1 -1 1 0 0 0];

internalField   nonuniform List<vector> 
100
(
(-3.125 -2.8125 0)
(-6.25 -0.625 0)
(-0.625 1.875 0)
(1.5625 3.125 0)
(-4.6875 0.625 0)
(-5 -0.3125 0)
(0.9375 0.625 0)
(0.625 0.625 0)
(2.1875 0.625 0)
(2.8125 -0.625 0)
(-0.625 -5.3125 0)
(-1.875 -0.3125 0)
(3.4375 5.625 0)
(0 4.6875 0)
(-8.75 0.625 0)
(-4.6875 0 0)
(1.875 2.1875 0)
(0 0.625 0)
(0.9375 2.1875 0)
(1.875 0 0)
(1.875 -0.625 0)
(5 1.5625 0)
(3.75 3.75 0)
(-3.125 0.9375 0)
(-9.0625 0.3125 0)
(-3.125 3.125 0)
(1.5625 0.9375 0)
(1.25 -0.3125 0)
(0.625 2.5 0)
(0.3125 2.1875 0)
(1.5625 4.375 0)
(3.4375 2.5 0)
(2.1875 -1.5625 0)
(-3.125 -1.25 0)
(-5.9375 -1.5625 0)
(-4.375 1.25 0)
(-2.1875 -1.875 0)
(1.25 -0.9375 0)
(3.75 0 0)
(2.1875 -0.9375 0)
(-0.3125 -0.9375 0)
(-1.25 -1.5625 0)
(1.25 -5 0)
(-3.75 -3.75 0)
(-7.1875 -3.4375 0)
(-3.125 -1.25 0)
(0 -0.9375 0)
(2.8125 1.25 0)
(0.9375 0.9375 0)
(-1.25 -3.75 0)
(1.25 -0.3125 0)
(-1.25 0 0)
(0 -0.3125 0)
(-2.1875 0 0)
(-3.4375 2.8125 0)
(-1.5625 3.75 0)
(-0.3125 2.8125 0)
(3.4375 1.5625 0)
(-0.625 0 0)
(-2.8125 -1.5625 0)
(0.3125 4.375 0)
(-1.25 5 0)
(0.9375 5.625 0)
(0 3.4375 0)
(-3.75 5 0)
(-3.125 4.0625 0)
(-1.25 4.375 0)
(0 2.8125 0)
(-2.8125 0.3125 0)
(-2.8125 -1.5625 0)
(1.5625 4.375 0)
(0 6.5625 0)
(-1.875 6.875 0)
(-2.5 3.4375 0)
(-2.1875 3.75 0)
(-2.5 4.0625 0)
(-1.875 3.75 0)
(-0.9375 2.5 0)
(-5.3125 -1.5625 0)
(-4.6875 -4.375 0)
(2.5 4.6875 0)
(1.25 2.8125 0)
(-2.1875 3.125 0)
(-3.125 3.125 0)
(-3.75 2.5 0)
(-3.125 0 0)
(-2.8125 0.9375 0)
(-5 -1.875 0)
(-9.0625 -6.875 0)
(-5 -3.125 0)
(0 2.5 0)
(-1.25 0.3125 0)
(-1.25 0 0)
(-3.4375 1.25 0)
(-5.625 0 0)
(-4.375 -1.875 0)
(-3.75 -1.25 0)
(-8.75 -2.5 0)
(-6.875 -4.375 0)
(-1.5625 -0.9375 0)
)
;

boundaryField
{
    left
    {
        type            calculated;
        value           nonuniform List<vector> 10((0 -2.8125 0) (0 -5.3125 0) (0 -0.625 0) (0 4.375 0) (0 -0.9375 0) (0 -0.3125 0) (0 4.375 0) (0 4.375 0) (0 4.6875 0) (0 2.5 0));
    }
    right
    {
        type            calculated;
        value           nonuniform List<vector> 10((0 -0.625 0) (0 0 0) (0 2.1875 0) (0 -0.9375 0) (0 -3.75 0) (0 -1.5625 0) (0 -1.5625 0) (0 -4.375 0) (0 -3.125 0) (0 -0.9375 0));
    }
    top
    {
        type            calculated;
        value           nonuniform List<vector> 10((0 0 0) (-1.25 0 0) (-1.25 0 0) (-3.4375 0 0) (-5.625 0 0) (-4.375 0 0) (-3.75 0 0) (-8.75 0 0) (-6.875 0 0) (-1.5625 0 0));
    }
    bottom
    {
        type            calculated;
        value           nonuniform List<vector> 10((-3.125 0 0) (-6.25 0 0) (-0.625 0 0) (1.5625 0 0) (-4.6875 0 0) (-5 0 0) (0.9375 0 0) (0.625 0 0) (2.1875 0 0) (2.8125 0 0));
    }
    defaultFaces
    {
        type            empty;
    }
}


// ************************************************************************* //
