/*--------------------------------*- C++ -*----------------------------------*\
| =========                 |                                                 |
| \\      /  F ield         | OpenFOAM: The Open Source CFD Toolbox           |
|  \\    /   O peration     | Version:  2406                                  |
|   \\  /    A nd           | Website:  www.openfoam.com                      |
|    \\/     M anipulation  |                                                 |
\*---------------------------------------------------------------------------*/
FoamFile
{
    version     2.0;
    format      ascii;
    arch        "LSB;label=32;scalar=64";
    class       volVectorField;
    location    "4";
    object      flux;
}
// * * * * * * * * * * * * * * * * * * * * * * * * * * * * * * * * * * * * * //

dimensions      [0 1 -1 1 0 0 0];

internalField   nonuniform List<vector> 
100
(
(-0.00305176 -0.00305176 0)
(-0.00640869 -0.000610352 0)
(0 0.0012207 0)
(0.00152588 0.00274658 0)
(-0.00640869 0.00213623 0)
(-0.00610352 0.000305176 0)
(0 0.000305176 0)
(0.00152588 0.00152588 0)
(0.00335693 0 0)
(0.00213623 0.000610352 0)
(-0.000610352 -0.00762939 0)
(-0.00213623 -0.0012207 0)
(0.00396729 0.00549316 0)
(0.00213623 0.00549316 0)
(-0.00946045 0.00152588 0)
(-0.00701904 0.000915527 0)
(0.00152588 0.00244141 0)
(0.000915527 0.00244141 0)
(0.00183105 0.00274658 0)
(0.00274658 0.000610352 0)
(0.00305176 -0.000610352 0)
(0.00640869 0.000915527 0)
(0.00671387 0.00305176 0)
(-0.00213623 0.00183105 0)
(-0.0109863 0.000610352 0)
(-0.00457764 0.00427246 0)
(0.0012207 0.00244141 0)
(0.00152588 0 0)
(0.0012207 0.00274658 0)
(0.000610352 0.00244141 0)
(0.0012207 0.00335693 0)
(0.00213623 0.00152588 0)
(0.00488281 -0.00183105 0)
(-0.000915527 -0.00213623 0)
(-0.00701904 -0.00396729 0)
(-0.00549316 0.000610352 0)
(-0.00274658 -0.000610352 0)
(0.00152588 -0.000915527 0)
(0.00427246 0.0012207 0)
(0.00244141 -0.00213623 0)
(0.000305176 -0.000610352 0)
(0.000610352 -0.000915527 0)
(0.00335693 -0.00396729 0)
(-0.00396729 -0.00549316 0)
(-0.00793457 -0.00518799 0)
(-0.00152588 -0.00152588 0)
(0 -0.00213623 0)
(0.00274658 -0.0012207 0)
(0.000305176 -0.0012207 0)
(-0.00213623 -0.00518799 0)
(0.00152588 0.00152588 0)
(-0.000915527 0.00244141 0)
(-0.000305176 -0.000915527 0)
(-0.00183105 -0.00274658 0)
(-0.00305176 0.00335693 0)
(-0.00244141 0.00396729 0)
(-0.00274658 0.00274658 0)
(0.00335693 0.0012207 0)
(0 -0.00152588 0)
(-0.00274658 -0.00244141 0)
(0.000915527 0.00610352 0)
(-0.000915527 0.00671387 0)
(-0.00213623 0.00732422 0)
(0 0.00305176 0)
(-0.00152588 0.00549316 0)
(-0.00183105 0.00427246 0)
(-0.00244141 0.00579834 0)
(-0.00183105 0.00549316 0)
(-0.00335693 0.0012207 0)
(-0.00305176 -0.00305176 0)
(0.00183105 0.00640869 0)
(0 0.00732422 0)
(-0.00457764 0.00946045 0)
(-0.00335693 0.00579834 0)
(-0.0012207 0.00396729 0)
(-0.00183105 0.00396729 0)
(-0.00213623 0.00335693 0)
(-0.00152588 0.00305176 0)
(-0.00854492 -0.00213623 0)
(-0.00701904 -0.00518799 0)
(0.00274658 0.00457764 0)
(0.00213623 0.00305176 0)
(-0.00335693 0.00366211 0)
(-0.00549316 0.00457764 0)
(-0.00366211 0.00183105 0)
(-0.00335693 -0.0012207 0)
(-0.00274658 0.000610352 0)
(-0.00701904 -0.00213623 0)
(-0.0106812 -0.00762939 0)
(-0.00640869 -0.00305176 0)
(0 0.00274658 0)
(-0.0012207 0 0)
(-0.00213623 -0.000610352 0)
(-0.00549316 0.0012207 0)
(-0.00701904 -0.000305176 0)
(-0.00366211 -0.00274658 0)
(-0.00274658 -0.000915527 0)
(-0.010376 -0.00244141 0)
(-0.00915527 -0.00427246 0)
(-0.00244141 -0.000610352 0)
)
;

boundaryField
{
    left
    {
        type            calculated;
        value           nonuniform List<vector> 10((0 -0.00305176 0) (0 -0.00762939 0) (0 -0.000610352 0) (0 0.00335693 0) (0 -0.000610352 0) (0 0.00152588 0) (0 0.00610352 0) (0 0.00640869 0) (0 0.00457764 0) (0 0.00274658 0));
    }
    right
    {
        type            calculated;
        value           nonuniform List<vector> 10((0 0.000610352 0) (0 0.000610352 0) (0 0.00244141 0) (0 -0.00213623 0) (0 -0.00518799 0) (0 -0.00244141 0) (0 -0.00305176 0) (0 -0.00518799 0) (0 -0.00305176 0) (0 -0.000610352 0));
    }
    top
    {
        type            calculated;
        value           nonuniform List<vector> 10((0 0 0) (-0.0012207 0 0) (-0.00213623 0 0) (-0.00549316 0 0) (-0.00701904 0 0) (-0.00366211 0 0) (-0.00274658 0 0) (-0.010376 0 0) (-0.00915527 0 0) (-0.00244141 0 0));
    }
    bottom
    {
        type            calculated;
        value           nonuniform List<vector> 10((-0.00305176 0 0) (-0.00640869 0 0) (0 0 0) (0.00152588 0 0) (-0.00640869 0 0) (-0.00610352 0 0) (0 0 0) (0.00152588 0 0) (0.00335693 0 0) (0.00213623 0 0));
    }
    defaultFaces
    {
        type            empty;
    }
}


// ************************************************************************* //
