/*--------------------------------*- C++ -*----------------------------------*\
| =========                 |                                                 |
| \\      /  F ield         | OpenFOAM: The Open Source CFD Toolbox           |
|  \\    /   O peration     | Version:  2406                                  |
|   \\  /    A nd           | Website:  www.openfoam.com                      |
|    \\/     M anipulation  |                                                 |
\*---------------------------------------------------------------------------*/
FoamFile
{
    version     2.0;
    format      ascii;
    arch        "LSB;label=32;scalar=64";
    class       volScalarField;
    location    "4";
    object      gradTx;
}
// * * * * * * * * * * * * * * * * * * * * * * * * * * * * * * * * * * * * * //

dimensions      [0 -1 0 1 0 0 0];

internalField   nonuniform List<scalar> 
100
(
-0.0762939
-0.160217
0
0.038147
-0.160217
-0.152588
0
0.038147
0.0839233
0.0534058
-0.0152588
-0.0534058
0.0991821
0.0534058
-0.236511
-0.175476
0.038147
0.0228882
0.0457764
0.0686646
0.0762939
0.160217
0.167847
-0.0534058
-0.274658
-0.114441
0.0305176
0.038147
0.0305176
0.0152588
0.0305176
0.0534058
0.12207
-0.0228882
-0.175476
-0.137329
-0.0686646
0.038147
0.106812
0.0610352
0.00762939
0.0152588
0.0839233
-0.0991821
-0.198364
-0.038147
0
0.0686646
0.00762939
-0.0534058
0.038147
-0.0228882
-0.00762939
-0.0457764
-0.0762939
-0.0610352
-0.0686646
0.0839233
0
-0.0686646
0.0228882
-0.0228882
-0.0534058
0
-0.038147
-0.0457764
-0.0610352
-0.0457764
-0.0839233
-0.0762939
0.0457764
0
-0.114441
-0.0839233
-0.0305176
-0.0457764
-0.0534058
-0.038147
-0.213623
-0.175476
0.0686646
0.0534058
-0.0839233
-0.137329
-0.0915527
-0.0839233
-0.0686646
-0.175476
-0.267029
-0.160217
0
-0.0305176
-0.0534058
-0.137329
-0.175476
-0.0915527
-0.0686646
-0.259399
-0.228882
-0.0610352
)
;

boundaryField
{
    left
    {
        type            calculated;
        value           uniform 0;
    }
    right
    {
        type            calculated;
        value           uniform 0;
    }
    top
    {
        type            calculated;
        value           nonuniform List<scalar> 10(0 -0.0305176 -0.0534058 -0.137329 -0.175476 -0.0915527 -0.0686646 -0.259399 -0.228882 -0.0610352);
    }
    bottom
    {
        type            calculated;
        value           nonuniform List<scalar> 10(-0.0762939 -0.160217 0 0.038147 -0.160217 -0.152588 0 0.038147 0.0839233 0.0534058);
    }
    defaultFaces
    {
        type            empty;
    }
}


// ************************************************************************* //
