/*--------------------------------*- C++ -*----------------------------------*\
| =========                 |                                                 |
| \\      /  F ield         | OpenFOAM: The Open Source CFD Toolbox           |
|  \\    /   O peration     | Version:  2406                                  |
|   \\  /    A nd           | Website:  www.openfoam.com                      |
|    \\/     M anipulation  |                                                 |
\*---------------------------------------------------------------------------*/
FoamFile
{
    version     2.0;
    format      ascii;
    arch        "LSB;label=32;scalar=64";
    class       volVectorField;
    location    "5.8";
    object      flux;
}
// * * * * * * * * * * * * * * * * * * * * * * * * * * * * * * * * * * * * * //

dimensions      [0 1 -1 1 0 0 0];

internalField   nonuniform List<vector> 
100
(
(-245760 -245760 0)
(-737280 -81920 0)
(-122880 204800 0)
(286720 245760 0)
(-737280 81920 0)
(-573440 0 0)
(245760 122880 0)
(204800 40960 0)
(368640 -40960 0)
(368640 -122880 0)
(-122880 -696320 0)
(-245760 -204800 0)
(327680 573440 0)
(122880 573440 0)
(-1.024e+06 122880 0)
(-614400 286720 0)
(368640 327680 0)
(122880 245760 0)
(204800 368640 0)
(286720 -81920 0)
(245760 -81920 0)
(450560 81920 0)
(696320 368640 0)
(-163840 204800 0)
(-1.024e+06 204800 0)
(-450560 573440 0)
(163840 286720 0)
(286720 -81920 0)
(40960 286720 0)
(-40960 286720 0)
(40960 450560 0)
(204800 204800 0)
(409600 -81920 0)
(-40960 -245760 0)
(-614400 -163840 0)
(-491520 163840 0)
(-245760 -81920 0)
(163840 -81920 0)
(450560 81920 0)
(327680 -81920 0)
(-40960 -40960 0)
(0 -81920 0)
(245760 -450560 0)
(-245760 -491520 0)
(-614400 -450560 0)
(-368640 -163840 0)
(-122880 -163840 0)
(368640 40960 0)
(122880 81920 0)
(-204800 -491520 0)
(40960 0 0)
(-204800 163840 0)
(0 -40960 0)
(-40960 0 0)
(-327680 286720 0)
(-163840 327680 0)
(-122880 327680 0)
(491520 163840 0)
(-40960 -81920 0)
(-368640 -245760 0)
(122880 655360 0)
(-40960 778240 0)
(40960 901120 0)
(81920 491520 0)
(-368640 696320 0)
(-286720 491520 0)
(-204800 450560 0)
(0 245760 0)
(-327680 -81920 0)
(-368640 -327680 0)
(122880 901120 0)
(0 942080 0)
(-286720 1.024e+06 0)
(-245760 614400 0)
(-204800 409600 0)
(-409600 573440 0)
(-368640 409600 0)
(-163840 286720 0)
(-655360 -286720 0)
(-614400 -573440 0)
(204800 655360 0)
(81920 532480 0)
(-245760 368640 0)
(-573440 450560 0)
(-368640 163840 0)
(-368640 -81920 0)
(-532480 163840 0)
(-696320 -204800 0)
(-1.06496e+06 -819200 0)
(-655360 -409600 0)
(40960 245760 0)
(-327680 81920 0)
(-286720 -122880 0)
(-450560 122880 0)
(-737280 0 0)
(-409600 -204800 0)
(-532480 -81920 0)
(-1.10592e+06 -286720 0)
(-860160 -450560 0)
(-204800 -40960 0)
)
;

boundaryField
{
    left
    {
        type            calculated;
        value           nonuniform List<vector> 10((0 -245760 0) (0 -696320 0) (0 -81920 0) (0 450560 0) (0 -40960 0) (0 0 0) (0 655360 0) (0 901120 0) (0 655360 0) (0 245760 0));
    }
    right
    {
        type            calculated;
        value           nonuniform List<vector> 10((0 -122880 0) (0 -81920 0) (0 286720 0) (0 -81920 0) (0 -491520 0) (0 -245760 0) (0 -327680 0) (0 -573440 0) (0 -409600 0) (0 -40960 0));
    }
    top
    {
        type            calculated;
        value           nonuniform List<vector> 10((40960 0 0) (-327680 0 0) (-286720 0 0) (-450560 0 0) (-737280 0 0) (-409600 0 0) (-532480 0 0) (-1.10592e+06 0 0) (-860160 0 0) (-204800 0 0));
    }
    bottom
    {
        type            calculated;
        value           nonuniform List<vector> 10((-245760 0 0) (-737280 0 0) (-122880 0 0) (286720 0 0) (-737280 0 0) (-573440 0 0) (245760 0 0) (204800 0 0) (368640 0 0) (368640 0 0));
    }
    defaultFaces
    {
        type            empty;
    }
}


// ************************************************************************* //
