/*--------------------------------*- C++ -*----------------------------------*\
| =========                 |                                                 |
| \\      /  F ield         | OpenFOAM: The Open Source CFD Toolbox           |
|  \\    /   O peration     | Version:  2406                                  |
|   \\  /    A nd           | Website:  www.openfoam.com                      |
|    \\/     M anipulation  |                                                 |
\*---------------------------------------------------------------------------*/
FoamFile
{
    version     2.0;
    format      ascii;
    arch        "LSB;label=32;scalar=64";
    class       volScalarField;
    location    "5.8";
    object      gradTx;
}
// * * * * * * * * * * * * * * * * * * * * * * * * * * * * * * * * * * * * * //

dimensions      [0 -1 0 1 0 0 0];

internalField   nonuniform List<scalar> 
100
(
-6.144e+06
-1.8432e+07
-3.072e+06
7.168e+06
-1.8432e+07
-1.4336e+07
6.144e+06
5.12e+06
9.216e+06
9.216e+06
-3.072e+06
-6.144e+06
8.192e+06
3.072e+06
-2.56e+07
-1.536e+07
9.216e+06
3.072e+06
5.12e+06
7.168e+06
6.144e+06
1.1264e+07
1.7408e+07
-4.096e+06
-2.56e+07
-1.1264e+07
4.096e+06
7.168e+06
1.024e+06
-1.024e+06
1.024e+06
5.12e+06
1.024e+07
-1.024e+06
-1.536e+07
-1.2288e+07
-6.144e+06
4.096e+06
1.1264e+07
8.192e+06
-1.024e+06
0
6.144e+06
-6.144e+06
-1.536e+07
-9.216e+06
-3.072e+06
9.216e+06
3.072e+06
-5.12e+06
1.024e+06
-5.12e+06
0
-1.024e+06
-8.192e+06
-4.096e+06
-3.072e+06
1.2288e+07
-1.024e+06
-9.216e+06
3.072e+06
-1.024e+06
1.024e+06
2.048e+06
-9.216e+06
-7.168e+06
-5.12e+06
0
-8.192e+06
-9.216e+06
3.072e+06
0
-7.168e+06
-6.144e+06
-5.12e+06
-1.024e+07
-9.216e+06
-4.096e+06
-1.6384e+07
-1.536e+07
5.12e+06
2.048e+06
-6.144e+06
-1.4336e+07
-9.216e+06
-9.216e+06
-1.3312e+07
-1.7408e+07
-2.6624e+07
-1.6384e+07
1.024e+06
-8.192e+06
-7.168e+06
-1.1264e+07
-1.8432e+07
-1.024e+07
-1.3312e+07
-2.7648e+07
-2.1504e+07
-5.12e+06
)
;

boundaryField
{
    left
    {
        type            calculated;
        value           uniform 0;
    }
    right
    {
        type            calculated;
        value           uniform 0;
    }
    top
    {
        type            calculated;
        value           nonuniform List<scalar> 10(1.024e+06 -8.192e+06 -7.168e+06 -1.1264e+07 -1.8432e+07 -1.024e+07 -1.3312e+07 -2.7648e+07 -2.1504e+07 -5.12e+06);
    }
    bottom
    {
        type            calculated;
        value           nonuniform List<scalar> 10(-6.144e+06 -1.8432e+07 -3.072e+06 7.168e+06 -1.8432e+07 -1.4336e+07 6.144e+06 5.12e+06 9.216e+06 9.216e+06);
    }
    defaultFaces
    {
        type            empty;
    }
}


// ************************************************************************* //
