/*--------------------------------*- C++ -*----------------------------------*\
| =========                 |                                                 |
| \\      /  F ield         | OpenFOAM: The Open Source CFD Toolbox           |
|  \\    /   O peration     | Version:  2406                                  |
|   \\  /    A nd           | Website:  www.openfoam.com                      |
|    \\/     M anipulation  |                                                 |
\*---------------------------------------------------------------------------*/
FoamFile
{
    version     2.0;
    format      ascii;
    arch        "LSB;label=32;scalar=64";
    class       volVectorField;
    location    "0.65";
    object      flux;
}
// * * * * * * * * * * * * * * * * * * * * * * * * * * * * * * * * * * * * * //

dimensions      [0 1 -1 1 0 0 0];

internalField   nonuniform List<vector> 
100
(
(-4.87891e-18 -4.87891e-18 0)
(-9.21572e-18 -1.0842e-18 0)
(1.0842e-18 1.0842e-18 0)
(3.25261e-18 2.71051e-18 0)
(-5.96311e-18 -1.0842e-18 0)
(-3.79471e-18 -1.0842e-18 0)
(1.6263e-18 1.0842e-18 0)
(-1.0842e-18 0 0)
(3.25261e-18 -5.42101e-19 0)
(3.25261e-18 -1.6263e-18 0)
(-1.0842e-18 -9.21572e-18 0)
(-2.71051e-18 -1.6263e-18 0)
(3.79471e-18 6.50521e-18 0)
(1.6263e-18 5.42101e-18 0)
(-9.21572e-18 0 0)
(-3.25261e-18 1.0842e-18 0)
(2.71051e-18 2.1684e-18 0)
(-1.6263e-18 1.6263e-18 0)
(1.0842e-18 3.25261e-18 0)
(2.71051e-18 -5.42101e-19 0)
(3.25261e-18 -1.0842e-18 0)
(5.96311e-18 1.0842e-18 0)
(7.58942e-18 4.33681e-18 0)
(-2.1684e-18 2.1684e-18 0)
(-1.13841e-17 2.1684e-18 0)
(-1.6263e-18 3.25261e-18 0)
(2.71051e-18 5.42101e-19 0)
(0 -5.42101e-19 0)
(0 2.71051e-18 0)
(5.42101e-19 2.1684e-18 0)
(5.42101e-19 5.96311e-18 0)
(2.71051e-18 1.6263e-18 0)
(5.42101e-18 -2.1684e-18 0)
(-1.0842e-18 -5.42101e-18 0)
(-7.04731e-18 -2.1684e-18 0)
(-4.33681e-18 0 0)
(-2.1684e-18 -2.71051e-18 0)
(0 -2.1684e-18 0)
(3.79471e-18 5.42101e-19 0)
(2.1684e-18 -2.71051e-18 0)
(-5.42101e-19 -3.25261e-18 0)
(-1.6263e-18 -1.6263e-18 0)
(5.42101e-19 -7.04731e-18 0)
(-2.71051e-18 -6.50521e-18 0)
(-5.96311e-18 -7.04731e-18 0)
(-2.1684e-18 -1.6263e-18 0)
(5.42101e-19 -2.71051e-18 0)
(3.79471e-18 -1.6263e-18 0)
(0 1.6263e-18 0)
(-3.25261e-18 -3.79471e-18 0)
(2.1684e-18 -3.25261e-18 0)
(-1.6263e-18 -2.1684e-18 0)
(1.0842e-18 -2.1684e-18 0)
(-1.0842e-18 -2.1684e-18 0)
(-2.1684e-18 2.1684e-18 0)
(-5.42101e-19 4.33681e-18 0)
(-1.0842e-18 1.6263e-18 0)
(5.42101e-18 1.6263e-18 0)
(0 0 0)
(-3.79471e-18 -1.0842e-18 0)
(1.6263e-18 4.87891e-18 0)
(-1.0842e-18 5.42101e-18 0)
(0 7.04731e-18 0)
(1.6263e-18 1.6263e-18 0)
(0 5.96311e-18 0)
(-1.6263e-18 4.33681e-18 0)
(-1.6263e-18 4.87891e-18 0)
(1.0842e-18 3.25261e-18 0)
(-2.1684e-18 2.1684e-18 0)
(-4.87891e-18 -1.6263e-18 0)
(2.1684e-18 4.87891e-18 0)
(1.0842e-18 7.04731e-18 0)
(-2.71051e-18 7.58942e-18 0)
(-2.1684e-18 3.25261e-18 0)
(1.0842e-18 3.25261e-18 0)
(-2.1684e-18 3.25261e-18 0)
(-1.6263e-18 3.79471e-18 0)
(1.6263e-18 4.33681e-18 0)
(-4.87891e-18 -2.1684e-18 0)
(-6.50521e-18 -3.25261e-18 0)
(4.33681e-18 3.79471e-18 0)
(1.0842e-18 1.0842e-18 0)
(-3.25261e-18 5.42101e-19 0)
(-3.25261e-18 2.71051e-18 0)
(5.42101e-19 0 0)
(-2.1684e-18 -2.1684e-18 0)
(-1.6263e-18 5.42101e-19 0)
(-3.25261e-18 -1.6263e-18 0)
(-9.21572e-18 -8.13152e-18 0)
(-6.50521e-18 -3.25261e-18 0)
(-5.42101e-19 2.71051e-18 0)
(-2.71051e-18 -1.0842e-18 0)
(-5.42101e-19 -2.1684e-18 0)
(-2.71051e-18 1.6263e-18 0)
(-4.87891e-18 -2.1684e-18 0)
(-1.0842e-18 -3.25261e-18 0)
(-5.42101e-19 -1.0842e-18 0)
(-7.58942e-18 -2.71051e-18 0)
(-7.04731e-18 -4.87891e-18 0)
(-2.1684e-18 -1.0842e-18 0)
)
;

boundaryField
{
    left
    {
        type            calculated;
        value           nonuniform List<vector> 10((0 -4.87891e-18 0) (0 -9.21572e-18 0) (0 -1.0842e-18 0) (0 5.96311e-18 0) (0 -3.25261e-18 0) (0 -3.25261e-18 0) (0 4.87891e-18 0) (0 4.87891e-18 0) (0 3.79471e-18 0) (0 2.71051e-18 0));
    }
    right
    {
        type            calculated;
        value           nonuniform List<vector> 10((0 -1.6263e-18 0) (0 -5.42101e-19 0) (0 2.1684e-18 0) (0 -2.71051e-18 0) (0 -3.79471e-18 0) (0 -1.0842e-18 0) (0 -1.6263e-18 0) (0 -3.25261e-18 0) (0 -3.25261e-18 0) (0 -1.0842e-18 0));
    }
    top
    {
        type            calculated;
        value           nonuniform List<vector> 10((-5.42101e-19 0 0) (-2.71051e-18 0 0) (-5.42101e-19 0 0) (-2.71051e-18 0 0) (-4.87891e-18 0 0) (-1.0842e-18 0 0) (-5.42101e-19 0 0) (-7.58942e-18 0 0) (-7.04731e-18 0 0) (-2.1684e-18 0 0));
    }
    bottom
    {
        type            calculated;
        value           nonuniform List<vector> 10((-4.87891e-18 0 0) (-9.21572e-18 0 0) (1.0842e-18 0 0) (3.25261e-18 0 0) (-5.96311e-18 0 0) (-3.79471e-18 0 0) (1.6263e-18 0 0) (-1.0842e-18 0 0) (3.25261e-18 0 0) (3.25261e-18 0 0));
    }
    defaultFaces
    {
        type            empty;
    }
}


// ************************************************************************* //
