/*--------------------------------*- C++ -*----------------------------------*\
| =========                 |                                                 |
| \\      /  F ield         | OpenFOAM: The Open Source CFD Toolbox           |
|  \\    /   O peration     | Version:  2406                                  |
|   \\  /    A nd           | Website:  www.openfoam.com                      |
|    \\/     M anipulation  |                                                 |
\*---------------------------------------------------------------------------*/
FoamFile
{
    version     2.0;
    format      ascii;
    arch        "LSB;label=32;scalar=64";
    class       volScalarField;
    location    "8.05";
    object      gradTy;
}
// * * * * * * * * * * * * * * * * * * * * * * * * * * * * * * * * * * * * * //

dimensions      [0 -1 0 1 0 0 0];

internalField   nonuniform List<scalar> 
100
(
-1.05553e+17
0
7.03687e+16
1.14349e+17
1.75922e+16
-3.51844e+16
0
1.75922e+16
-8.79609e+15
-2.63883e+16
-1.5833e+17
-8.79609e+15
1.84718e+17
1.93514e+17
5.27766e+16
8.79609e+15
4.39805e+16
3.51844e+16
8.79609e+16
8.79609e+15
2.63883e+16
5.27766e+16
1.05553e+17
7.03687e+16
7.91648e+16
1.31941e+17
6.15727e+16
-8.79609e+15
1.14349e+17
7.91648e+16
1.5833e+17
7.91648e+16
-6.15727e+16
-7.91648e+16
-1.75922e+16
5.27766e+16
-8.79609e+15
-2.63883e+16
5.27766e+16
-8.79609e+15
-8.79609e+15
-3.51844e+16
-1.05553e+17
-1.14349e+17
-1.14349e+17
-2.63883e+16
-3.51844e+16
6.15727e+16
7.91648e+16
-7.91648e+16
-1.75922e+16
3.51844e+16
8.79609e+15
-2.63883e+16
1.14349e+17
1.75922e+17
1.40737e+17
6.15727e+16
-8.79609e+15
-3.51844e+16
1.49534e+17
1.84718e+17
1.93514e+17
9.6757e+16
1.75922e+17
1.84718e+17
1.67126e+17
1.14349e+17
0
-4.39805e+16
1.49534e+17
1.84718e+17
2.46291e+17
1.40737e+17
1.05553e+17
9.6757e+16
1.40737e+17
1.31941e+17
-4.39805e+16
-1.40737e+17
1.05553e+17
1.05553e+17
7.03687e+16
1.14349e+17
5.27766e+16
-8.79609e+15
7.91648e+16
1.75922e+16
-1.75922e+17
-8.79609e+16
6.15727e+16
8.79609e+15
-4.39805e+16
8.79609e+15
0
-3.51844e+16
-8.79609e+15
-3.51844e+16
-8.79609e+16
2.63883e+16
)
;

boundaryField
{
    left
    {
        type            calculated;
        value           nonuniform List<scalar> 10(-1.05553e+17 -1.5833e+17 2.63883e+16 1.5833e+17 -8.79609e+15 -1.75922e+16 1.49534e+17 1.49534e+17 1.05553e+17 6.15727e+16);
    }
    right
    {
        type            calculated;
        value           nonuniform List<scalar> 10(-2.63883e+16 8.79609e+15 7.91648e+16 -8.79609e+15 -7.91648e+16 -3.51844e+16 -4.39805e+16 -1.40737e+17 -8.79609e+16 2.63883e+16);
    }
    top
    {
        type            calculated;
        value           uniform 0;
    }
    bottom
    {
        type            calculated;
        value           uniform 0;
    }
    defaultFaces
    {
        type            empty;
    }
}


// ************************************************************************* //
