/*--------------------------------*- C++ -*----------------------------------*\
| =========                 |                                                 |
| \\      /  F ield         | OpenFOAM: The Open Source CFD Toolbox           |
|  \\    /   O peration     | Version:  2406                                  |
|   \\  /    A nd           | Website:  www.openfoam.com                      |
|    \\/     M anipulation  |                                                 |
\*---------------------------------------------------------------------------*/
FoamFile
{
    version     2.0;
    format      ascii;
    arch        "LSB;label=32;scalar=64";
    class       volVectorField;
    location    "4.5";
    object      flux;
}
// * * * * * * * * * * * * * * * * * * * * * * * * * * * * * * * * * * * * * //

dimensions      [0 1 -1 1 0 0 0];

internalField   nonuniform List<vector> 
100
(
(-0.546875 -0.546875 0)
(-1.25 -0.078125 0)
(-0.234375 0.234375 0)
(0.15625 0.703125 0)
(-1.17188 0.234375 0)
(-1.01563 -0.078125 0)
(0.546875 0.15625 0)
(0.390625 0 0)
(0.234375 -0.15625 0)
(0.234375 0.15625 0)
(-0.078125 -1.25 0)
(-0.390625 -0.15625 0)
(0.546875 1.01563 0)
(0.078125 1.01562 0)
(-1.95312 0.15625 0)
(-1.01563 0.15625 0)
(0.546875 0.46875 0)
(0.234375 0.15625 0)
(0.3125 0.390625 0)
(0.390625 0.15625 0)
(0.390625 -0.234375 0)
(0.9375 0.15625 0)
(0.859375 0.546875 0)
(-0.546875 0 0)
(-2.03125 0.234375 0)
(-0.625 0.859375 0)
(0.46875 0.390625 0)
(0.234375 0 0)
(0.3125 0.546875 0)
(0.15625 0.46875 0)
(0.390625 0.703125 0)
(0.390625 0.3125 0)
(0.390625 -0.390625 0)
(-0.234375 -0.625 0)
(-1.09375 -0.390625 0)
(-0.9375 0.15625 0)
(-0.234375 -0.234375 0)
(0.3125 -0.234375 0)
(0.703125 0.15625 0)
(0.390625 -0.234375 0)
(0 -0.078125 0)
(-0.234375 -0.234375 0)
(0.15625 -0.78125 0)
(-0.546875 -0.78125 0)
(-1.25 -0.78125 0)
(-0.625 -0.390625 0)
(0.078125 -0.390625 0)
(0.703125 0.078125 0)
(0.234375 0 0)
(-0.15625 -0.78125 0)
(0.234375 0.078125 0)
(-0.234375 0.15625 0)
(-0.234375 0.078125 0)
(-0.234375 0 0)
(-0.78125 0.625 0)
(-0.46875 0.78125 0)
(0.15625 0.625 0)
(0.78125 0.3125 0)
(-0.078125 -0.15625 0)
(-0.546875 -0.46875 0)
(0.078125 1.09375 0)
(-0.234375 1.17188 0)
(-0.078125 1.40625 0)
(0 0.703125 0)
(-0.46875 1.01563 0)
(-0.46875 1.17188 0)
(-0.3125 0.9375 0)
(-0.15625 0.625 0)
(-0.546875 0 0)
(-0.546875 -0.546875 0)
(0.3125 0.9375 0)
(0 1.32812 0)
(-0.546875 1.48437 0)
(-0.703125 0.9375 0)
(-0.3125 0.703125 0)
(-0.546875 0.78125 0)
(-0.390625 0.703125 0)
(-0.234375 0.46875 0)
(-1.25 -0.234375 0)
(-0.9375 -0.9375 0)
(0.546875 0.9375 0)
(0.46875 0.625 0)
(-0.546875 0.546875 0)
(-0.9375 0.859375 0)
(-0.625 0.3125 0)
(-0.546875 -0.3125 0)
(-0.625 0.15625 0)
(-0.9375 -0.390625 0)
(-2.03125 -1.25 0)
(-1.25 -0.703125 0)
(0 0.546875 0)
(-0.3125 0.078125 0)
(-0.390625 -0.078125 0)
(-0.78125 0.234375 0)
(-1.40625 0 0)
(-0.703125 -0.46875 0)
(-0.546875 -0.3125 0)
(-1.71875 -0.46875 0)
(-1.64063 -0.9375 0)
(-0.390625 -0.15625 0)
)
;

boundaryField
{
    left
    {
        type            calculated;
        value           nonuniform List<vector> 10((0 -0.546875 0) (0 -1.25 0) (0 -0.234375 0) (0 0.703125 0) (0 -0.078125 0) (0 0.078125 0) (0 1.09375 0) (0 0.9375 0) (0 0.9375 0) (0 0.546875 0));
    }
    right
    {
        type            calculated;
        value           nonuniform List<vector> 10((0 0.15625 0) (0 0.15625 0) (0 0.46875 0) (0 -0.234375 0) (0 -0.78125 0) (0 -0.46875 0) (0 -0.546875 0) (0 -0.9375 0) (0 -0.703125 0) (0 -0.15625 0));
    }
    top
    {
        type            calculated;
        value           nonuniform List<vector> 10((0 0 0) (-0.3125 0 0) (-0.390625 0 0) (-0.78125 0 0) (-1.40625 0 0) (-0.703125 0 0) (-0.546875 0 0) (-1.71875 0 0) (-1.64063 0 0) (-0.390625 0 0));
    }
    bottom
    {
        type            calculated;
        value           nonuniform List<vector> 10((-0.546875 0 0) (-1.25 0 0) (-0.234375 0 0) (0.15625 0 0) (-1.17188 0 0) (-1.01563 0 0) (0.546875 0 0) (0.390625 0 0) (0.234375 0 0) (0.234375 0 0));
    }
    defaultFaces
    {
        type            empty;
    }
}


// ************************************************************************* //
