/*--------------------------------*- C++ -*----------------------------------*\
| =========                 |                                                 |
| \\      /  F ield         | OpenFOAM: The Open Source CFD Toolbox           |
|  \\    /   O peration     | Version:  2406                                  |
|   \\  /    A nd           | Website:  www.openfoam.com                      |
|    \\/     M anipulation  |                                                 |
\*---------------------------------------------------------------------------*/
FoamFile
{
    version     2.0;
    format      ascii;
    arch        "LSB;label=32;scalar=64";
    class       volScalarField;
    location    "4.5";
    object      gradTx;
}
// * * * * * * * * * * * * * * * * * * * * * * * * * * * * * * * * * * * * * //

dimensions      [0 -1 0 1 0 0 0];

internalField   nonuniform List<scalar> 
100
(
-13.6719
-31.25
-5.85938
3.90625
-29.2969
-25.3906
13.6719
9.76562
5.85938
5.85937
-1.95312
-9.76562
13.6719
1.95312
-48.8281
-25.3906
13.6719
5.85937
7.8125
9.76562
9.76563
23.4375
21.4844
-13.6719
-50.7813
-15.625
11.7188
5.85937
7.8125
3.90625
9.76562
9.76562
9.76562
-5.85937
-27.3437
-23.4375
-5.85938
7.8125
17.5781
9.76562
0
-5.85937
3.90625
-13.6719
-31.25
-15.625
1.95313
17.5781
5.85938
-3.90625
5.85938
-5.85938
-5.85938
-5.85937
-19.5313
-11.7188
3.90625
19.5312
-1.95313
-13.6719
1.95312
-5.85938
-1.95313
0
-11.7188
-11.7188
-7.8125
-3.90625
-13.6719
-13.6719
7.8125
0
-13.6719
-17.5781
-7.8125
-13.6719
-9.76562
-5.85937
-31.25
-23.4375
13.6719
11.7187
-13.6719
-23.4375
-15.625
-13.6719
-15.625
-23.4375
-50.7813
-31.25
0
-7.8125
-9.76563
-19.5312
-35.1563
-17.5781
-13.6719
-42.9687
-41.0156
-9.76562
)
;

boundaryField
{
    left
    {
        type            calculated;
        value           uniform 0;
    }
    right
    {
        type            calculated;
        value           uniform 0;
    }
    top
    {
        type            calculated;
        value           nonuniform List<scalar> 10(0 -7.8125 -9.76563 -19.5312 -35.1563 -17.5781 -13.6719 -42.9687 -41.0156 -9.76562);
    }
    bottom
    {
        type            calculated;
        value           nonuniform List<scalar> 10(-13.6719 -31.25 -5.85938 3.90625 -29.2969 -25.3906 13.6719 9.76562 5.85938 5.85937);
    }
    defaultFaces
    {
        type            empty;
    }
}


// ************************************************************************* //
