/*--------------------------------*- C++ -*----------------------------------*\
| =========                 |                                                 |
| \\      /  F ield         | OpenFOAM: The Open Source CFD Toolbox           |
|  \\    /   O peration     | Version:  2406                                  |
|   \\  /    A nd           | Website:  www.openfoam.com                      |
|    \\/     M anipulation  |                                                 |
\*---------------------------------------------------------------------------*/
FoamFile
{
    version     2.0;
    format      ascii;
    arch        "LSB;label=32;scalar=64";
    class       volScalarField;
    location    "4.55";
    object      gradTx;
}
// * * * * * * * * * * * * * * * * * * * * * * * * * * * * * * * * * * * * * //

dimensions      [0 -1 0 1 0 0 0];

internalField   nonuniform List<scalar> 
100
(
-31.25
-54.6875
0
11.7187
-58.5938
-42.9688
19.5312
23.4375
11.7188
11.7187
0
-11.7188
23.4375
3.90625
-89.8438
-46.875
23.4375
15.625
11.7188
15.625
15.625
35.1563
46.875
-23.4375
-93.75
-42.9688
19.5313
23.4375
11.7188
15.625
11.7187
23.4375
23.4375
-15.625
-54.6875
-42.9687
-11.7188
15.625
31.25
19.5312
3.90625
-3.90625
7.8125
-15.625
-62.5
-35.1563
3.90625
35.1562
7.8125
-11.7188
7.8125
-3.90625
0
-19.5312
-35.1563
-27.3438
0
42.9687
-3.90625
-27.3438
3.90625
-7.8125
0
-3.90625
-23.4375
-19.5313
-7.8125
-3.90625
-23.4375
-19.5313
11.7187
0
-27.3437
-23.4375
-7.8125
-15.625
-15.625
-15.625
-50.7812
-46.875
19.5313
11.7187
-23.4375
-39.0625
-27.3438
-15.625
-19.5313
-42.9687
-89.8438
-54.6875
3.90625
-11.7187
-15.625
-31.25
-54.6875
-27.3438
-23.4375
-74.2187
-66.4063
-15.625
)
;

boundaryField
{
    left
    {
        type            calculated;
        value           uniform 0;
    }
    right
    {
        type            calculated;
        value           uniform 0;
    }
    top
    {
        type            calculated;
        value           nonuniform List<scalar> 10(3.90625 -11.7187 -15.625 -31.25 -54.6875 -27.3438 -23.4375 -74.2187 -66.4063 -15.625);
    }
    bottom
    {
        type            calculated;
        value           nonuniform List<scalar> 10(-31.25 -54.6875 0 11.7187 -58.5938 -42.9688 19.5312 23.4375 11.7188 11.7187);
    }
    defaultFaces
    {
        type            empty;
    }
}


// ************************************************************************* //
