/*--------------------------------*- C++ -*----------------------------------*\
| =========                 |                                                 |
| \\      /  F ield         | OpenFOAM: The Open Source CFD Toolbox           |
|  \\    /   O peration     | Version:  2406                                  |
|   \\  /    A nd           | Website:  www.openfoam.com                      |
|    \\/     M anipulation  |                                                 |
\*---------------------------------------------------------------------------*/
FoamFile
{
    version     2.0;
    format      ascii;
    arch        "LSB;label=32;scalar=64";
    class       volVectorField;
    location    "2.45";
    object      flux;
}
// * * * * * * * * * * * * * * * * * * * * * * * * * * * * * * * * * * * * * //

dimensions      [0 1 -1 1 0 0 0];

internalField   nonuniform List<vector> 
100
(
(-3.63798e-10 -2.91038e-10 0)
(-7.27596e-10 -2.18279e-10 0)
(0 1.45519e-10 0)
(1.45519e-10 2.91038e-10 0)
(-7.27596e-10 1.45519e-10 0)
(-5.09317e-10 -7.27596e-11 0)
(7.27596e-11 0 0)
(-7.27596e-11 0 0)
(2.91038e-10 0 0)
(3.63798e-10 7.27596e-11 0)
(-2.18279e-10 -8.73115e-10 0)
(-2.18279e-10 -1.45519e-10 0)
(4.36557e-10 6.54836e-10 0)
(1.45519e-10 8.00355e-10 0)
(-1.16415e-09 2.18279e-10 0)
(-5.82077e-10 0 0)
(2.18279e-10 1.45519e-10 0)
(0 1.45519e-10 0)
(2.18279e-10 3.63798e-10 0)
(2.91038e-10 -7.27596e-11 0)
(2.91038e-10 -7.27596e-11 0)
(6.54836e-10 7.27596e-11 0)
(9.45874e-10 3.63798e-10 0)
(-2.91038e-10 2.18279e-10 0)
(-1.45519e-09 1.45519e-10 0)
(-5.09317e-10 5.09317e-10 0)
(1.45519e-10 1.45519e-10 0)
(1.45519e-10 0 0)
(1.45519e-10 2.91038e-10 0)
(0 3.63798e-10 0)
(7.27596e-11 3.63798e-10 0)
(2.18279e-10 2.18279e-10 0)
(5.82077e-10 -2.91038e-10 0)
(-1.45519e-10 -5.09317e-10 0)
(-8.73115e-10 -4.36557e-10 0)
(-5.82077e-10 1.45519e-10 0)
(-2.91038e-10 -7.27596e-11 0)
(1.45519e-10 -7.27596e-11 0)
(5.82077e-10 1.45519e-10 0)
(3.63798e-10 -7.27596e-11 0)
(7.27596e-11 -1.45519e-10 0)
(7.27596e-11 -2.18279e-10 0)
(2.18279e-10 -5.82077e-10 0)
(-4.36557e-10 -6.54836e-10 0)
(-8.73115e-10 -6.54836e-10 0)
(-2.18279e-10 -1.45519e-10 0)
(0 -2.18279e-10 0)
(3.63798e-10 0 0)
(7.27596e-11 7.27596e-11 0)
(-2.18279e-10 -5.82077e-10 0)
(7.27596e-11 -7.27596e-11 0)
(-1.45519e-10 7.27596e-11 0)
(7.27596e-11 -7.27596e-11 0)
(-1.45519e-10 -1.45519e-10 0)
(-2.91038e-10 3.63798e-10 0)
(-1.45519e-10 5.09317e-10 0)
(-3.63798e-10 3.63798e-10 0)
(4.36557e-10 7.27596e-11 0)
(7.27596e-11 -1.45519e-10 0)
(-2.91038e-10 -2.91038e-10 0)
(2.18279e-10 7.27596e-10 0)
(0 8.00355e-10 0)
(0 9.45874e-10 0)
(0 4.36557e-10 0)
(-2.18279e-10 7.27596e-10 0)
(-2.18279e-10 6.54836e-10 0)
(-2.91038e-10 6.54836e-10 0)
(-7.27596e-11 5.82077e-10 0)
(-2.91038e-10 1.45519e-10 0)
(-4.36557e-10 -1.45519e-10 0)
(1.45519e-10 8.73115e-10 0)
(0 1.01863e-09 0)
(-2.91038e-10 1.09139e-09 0)
(-3.63798e-10 5.09317e-10 0)
(0 5.09317e-10 0)
(-2.91038e-10 4.36557e-10 0)
(-5.09317e-10 3.63798e-10 0)
(-7.27596e-11 4.36557e-10 0)
(-6.54836e-10 -1.45519e-10 0)
(-6.54836e-10 -5.09317e-10 0)
(4.36557e-10 4.36557e-10 0)
(2.91038e-10 5.09317e-10 0)
(-4.36557e-10 4.36557e-10 0)
(-6.54836e-10 5.82077e-10 0)
(-3.63798e-10 1.45519e-10 0)
(-3.63798e-10 -2.91038e-10 0)
(-2.18279e-10 1.45519e-10 0)
(-5.09317e-10 -1.45519e-10 0)
(-1.30967e-09 -9.45874e-10 0)
(-7.27596e-10 -6.54836e-10 0)
(1.45519e-10 2.91038e-10 0)
(0 0 0)
(-1.45519e-10 0 0)
(-6.54836e-10 2.91038e-10 0)
(-9.45874e-10 0 0)
(-3.63798e-10 -3.63798e-10 0)
(-2.91038e-10 -7.27596e-11 0)
(-1.23691e-09 -3.63798e-10 0)
(-1.01863e-09 -6.54836e-10 0)
(-2.91038e-10 -1.45519e-10 0)
)
;

boundaryField
{
    left
    {
        type            calculated;
        value           nonuniform List<vector> 10((0 -2.91038e-10 0) (0 -8.73115e-10 0) (0 -7.27596e-11 0) (0 3.63798e-10 0) (0 -1.45519e-10 0) (0 -7.27596e-11 0) (0 7.27596e-10 0) (0 8.73115e-10 0) (0 4.36557e-10 0) (0 2.91038e-10 0));
    }
    right
    {
        type            calculated;
        value           nonuniform List<vector> 10((0 7.27596e-11 0) (0 -7.27596e-11 0) (0 3.63798e-10 0) (0 -7.27596e-11 0) (0 -5.82077e-10 0) (0 -2.91038e-10 0) (0 -1.45519e-10 0) (0 -5.09317e-10 0) (0 -6.54836e-10 0) (0 -1.45519e-10 0));
    }
    top
    {
        type            calculated;
        value           nonuniform List<vector> 10((1.45519e-10 0 0) (0 0 0) (-1.45519e-10 0 0) (-6.54836e-10 0 0) (-9.45874e-10 0 0) (-3.63798e-10 0 0) (-2.91038e-10 0 0) (-1.23691e-09 0 0) (-1.01863e-09 0 0) (-2.91038e-10 0 0));
    }
    bottom
    {
        type            calculated;
        value           nonuniform List<vector> 10((-3.63798e-10 0 0) (-7.27596e-10 0 0) (0 0 0) (1.45519e-10 0 0) (-7.27596e-10 0 0) (-5.09317e-10 0 0) (7.27596e-11 0 0) (-7.27596e-11 0 0) (2.91038e-10 0 0) (3.63798e-10 0 0));
    }
    defaultFaces
    {
        type            empty;
    }
}


// ************************************************************************* //
