/*--------------------------------*- C++ -*----------------------------------*\
| =========                 |                                                 |
| \\      /  F ield         | OpenFOAM: The Open Source CFD Toolbox           |
|  \\    /   O peration     | Version:  2406                                  |
|   \\  /    A nd           | Website:  www.openfoam.com                      |
|    \\/     M anipulation  |                                                 |
\*---------------------------------------------------------------------------*/
FoamFile
{
    version     2.0;
    format      ascii;
    arch        "LSB;label=32;scalar=64";
    class       volScalarField;
    location    "1.75";
    object      gradTy;
}
// * * * * * * * * * * * * * * * * * * * * * * * * * * * * * * * * * * * * * //

dimensions      [0 -1 0 1 0 0 0];

internalField   nonuniform List<scalar> 
100
(
-1.06581e-11
-8.88178e-13
8.88178e-13
9.76996e-12
2.66454e-12
-1.77636e-12
-8.88178e-13
2.66454e-12
8.88178e-13
0
-1.59872e-11
-4.44089e-12
1.24345e-11
1.42109e-11
3.55271e-12
4.44089e-12
6.21725e-12
4.44089e-12
7.10543e-12
2.66454e-12
8.88178e-13
1.77636e-12
8.88178e-12
2.66454e-12
1.77636e-12
1.24345e-11
6.21725e-12
-1.77636e-12
6.21725e-12
2.66454e-12
7.99361e-12
6.21725e-12
-7.10543e-12
-8.88178e-12
-6.21725e-12
0
-3.55271e-12
-2.66454e-12
2.66454e-12
-2.66454e-12
-4.44089e-12
-6.21725e-12
-1.24345e-11
-9.76996e-12
-9.76996e-12
-6.21725e-12
-2.66454e-12
1.77636e-12
3.55271e-12
-7.99361e-12
-4.44089e-12
-8.88178e-13
-8.88178e-13
1.77636e-12
1.06581e-11
1.15463e-11
4.44089e-12
3.55271e-12
-4.44089e-12
-4.44089e-12
7.99361e-12
1.15463e-11
1.68754e-11
5.32907e-12
1.15463e-11
1.24345e-11
9.76996e-12
5.32907e-12
-2.66454e-12
-6.21725e-12
1.06581e-11
1.42109e-11
1.59872e-11
4.44089e-12
5.32907e-12
9.76996e-12
1.15463e-11
7.99361e-12
-1.77636e-12
-1.42109e-11
8.88178e-12
5.32907e-12
2.66454e-12
4.44089e-12
4.44089e-12
-1.77636e-12
4.44089e-12
-5.32907e-12
-1.86517e-11
-1.06581e-11
5.32907e-12
-2.66454e-12
-2.66454e-12
2.66454e-12
0
-4.44089e-12
-1.77636e-12
-7.99361e-12
-1.15463e-11
-8.88178e-13
)
;

boundaryField
{
    left
    {
        type            calculated;
        value           nonuniform List<scalar> 10(-1.06581e-11 -1.59872e-11 8.88178e-13 7.99361e-12 -4.44089e-12 -4.44089e-12 7.99361e-12 1.06581e-11 8.88178e-12 5.32907e-12);
    }
    right
    {
        type            calculated;
        value           nonuniform List<scalar> 10(0 2.66454e-12 2.66454e-12 -2.66454e-12 -7.99361e-12 -4.44089e-12 -6.21725e-12 -1.42109e-11 -1.06581e-11 -8.88178e-13);
    }
    top
    {
        type            calculated;
        value           uniform 0;
    }
    bottom
    {
        type            calculated;
        value           uniform 0;
    }
    defaultFaces
    {
        type            empty;
    }
}


// ************************************************************************* //
