/*--------------------------------*- C++ -*----------------------------------*\
| =========                 |                                                 |
| \\      /  F ield         | OpenFOAM: The Open Source CFD Toolbox           |
|  \\    /   O peration     | Version:  2406                                  |
|   \\  /    A nd           | Website:  www.openfoam.com                      |
|    \\/     M anipulation  |                                                 |
\*---------------------------------------------------------------------------*/
FoamFile
{
    version     2.0;
    format      ascii;
    arch        "LSB;label=32;scalar=64";
    class       volScalarField;
    location    "3.5";
    object      gradTy;
}
// * * * * * * * * * * * * * * * * * * * * * * * * * * * * * * * * * * * * * //

dimensions      [0 -1 0 1 0 0 0];

internalField   nonuniform List<scalar> 
100
(
-0.000655651
-5.96046e-05
0.000178814
0.000298023
-5.96046e-05
-0.000178814
5.96046e-05
0
-5.96046e-05
-5.96046e-05
-0.0013113
-0.000238419
0.000834465
0.00077486
5.96046e-05
0
0.000298023
0.000178814
0.000298023
0
-5.96046e-05
0
0.000417233
0.000178814
0.000119209
0.000596046
0.000238419
-5.96046e-05
0.000357628
0.000476837
0.000655651
0.000238419
-0.000298023
-0.000476837
-0.000536442
0.000119209
-0.000298023
-0.000357628
0.000178814
-0.000238419
-0.000119209
-0.000298023
-0.00077486
-0.000596046
-0.00077486
-0.000357628
-0.000357628
-5.96046e-05
0.000119209
-0.000596046
0
0.000119209
-5.96046e-05
0
0.000655651
0.00077486
0.000357628
0.000178814
-0.000119209
-0.000417233
0.00077486
0.000953674
0.00101328
0.000655651
0.00113249
0.000834465
0.000715256
0.000417233
-5.96046e-05
-0.000357628
0.000834465
0.00113249
0.00119209
0.000655651
0.000715256
0.000655651
0.000596046
0.000417233
-0.000357628
-0.000536442
0.000655651
0.000536442
0.000298023
0.000417233
0.000298023
-0.000119209
0.000357628
-0.000178814
-0.000953674
-0.000417233
0.000417233
-5.96046e-05
-0.000178814
0.000238419
0
-0.000238419
-0.000119209
-0.000238419
-0.000536442
0
)
;

boundaryField
{
    left
    {
        type            calculated;
        value           nonuniform List<scalar> 10(-0.000655651 -0.0013113 -5.96046e-05 0.000655651 -0.000119209 0 0.00077486 0.000834465 0.000655651 0.000417233);
    }
    right
    {
        type            calculated;
        value           nonuniform List<scalar> 10(-5.96046e-05 0 0.000476837 -0.000238419 -0.000596046 -0.000417233 -0.000357628 -0.000536442 -0.000417233 0);
    }
    top
    {
        type            calculated;
        value           uniform 0;
    }
    bottom
    {
        type            calculated;
        value           uniform 0;
    }
    defaultFaces
    {
        type            empty;
    }
}


// ************************************************************************* //
