/*--------------------------------*- C++ -*----------------------------------*\
| =========                 |                                                 |
| \\      /  F ield         | OpenFOAM: The Open Source CFD Toolbox           |
|  \\    /   O peration     | Version:  2406                                  |
|   \\  /    A nd           | Website:  www.openfoam.com                      |
|    \\/     M anipulation  |                                                 |
\*---------------------------------------------------------------------------*/
FoamFile
{
    version     2.0;
    format      ascii;
    arch        "LSB;label=32;scalar=64";
    class       volVectorField;
    location    "8.35";
    object      flux;
}
// * * * * * * * * * * * * * * * * * * * * * * * * * * * * * * * * * * * * * //

dimensions      [0 1 -1 1 0 0 0];

internalField   nonuniform List<vector> 
100
(
(-1.01331e+17 -1.01331e+17 0)
(-2.02662e+17 -3.3777e+16 0)
(-4.5036e+16 5.6295e+16 0)
(2.2518e+16 9.0072e+16 0)
(-1.35108e+17 4.5036e+16 0)
(-9.0072e+16 -1.1259e+16 0)
(4.5036e+16 1.1259e+16 0)
(-2.2518e+16 1.1259e+16 0)
(3.3777e+16 0 0)
(6.7554e+16 -1.1259e+16 0)
(-2.2518e+16 -1.80144e+17 0)
(-4.5036e+16 -4.5036e+16 0)
(6.7554e+16 1.80144e+17 0)
(1.1259e+16 1.68885e+17 0)
(-2.36439e+17 5.6295e+16 0)
(-1.1259e+17 3.3777e+16 0)
(4.5036e+16 6.7554e+16 0)
(-2.2518e+16 2.2518e+16 0)
(2.2518e+16 9.0072e+16 0)
(5.6295e+16 3.3777e+16 0)
(3.3777e+16 -1.1259e+16 0)
(1.46367e+17 4.5036e+16 0)
(1.68885e+17 9.0072e+16 0)
(-7.8813e+16 7.8813e+16 0)
(-2.81475e+17 4.5036e+16 0)
(-9.0072e+16 1.01331e+17 0)
(5.6295e+16 3.3777e+16 0)
(0 1.1259e+16 0)
(1.1259e+16 9.0072e+16 0)
(1.1259e+16 4.5036e+16 0)
(4.5036e+16 1.23849e+17 0)
(6.7554e+16 6.7554e+16 0)
(9.0072e+16 -6.7554e+16 0)
(-5.6295e+16 -9.0072e+16 0)
(-2.02662e+17 -4.5036e+16 0)
(-1.35108e+17 2.2518e+16 0)
(-4.5036e+16 -6.7554e+16 0)
(4.5036e+16 -4.5036e+16 0)
(5.6295e+16 2.2518e+16 0)
(2.2518e+16 -3.3777e+16 0)
(-2.2518e+16 0 0)
(-3.3777e+16 -3.3777e+16 0)
(2.2518e+16 -1.01331e+17 0)
(-5.6295e+16 -1.01331e+17 0)
(-1.80144e+17 -1.01331e+17 0)
(-1.01331e+17 1.1259e+16 0)
(-2.2518e+16 -2.2518e+16 0)
(9.0072e+16 0 0)
(2.2518e+16 2.2518e+16 0)
(-3.3777e+16 -5.6295e+16 0)
(1.1259e+16 -1.1259e+16 0)
(-4.5036e+16 4.5036e+16 0)
(1.1259e+16 1.1259e+16 0)
(-4.5036e+16 1.1259e+16 0)
(-9.0072e+16 1.01331e+17 0)
(-5.6295e+16 1.23849e+17 0)
(-5.6295e+16 1.01331e+17 0)
(7.8813e+16 6.7554e+16 0)
(0 -1.1259e+16 0)
(-5.6295e+16 -2.2518e+16 0)
(4.5036e+16 1.35108e+17 0)
(-1.1259e+16 1.91403e+17 0)
(0 2.2518e+17 0)
(2.2518e+16 1.23849e+17 0)
(-6.7554e+16 2.02662e+17 0)
(-1.01331e+17 1.57626e+17 0)
(-7.8813e+16 1.57626e+17 0)
(-1.1259e+16 1.01331e+17 0)
(-6.7554e+16 1.1259e+16 0)
(-5.6295e+16 -4.5036e+16 0)
(5.6295e+16 1.57626e+17 0)
(2.2518e+16 2.02662e+17 0)
(-6.7554e+16 2.36439e+17 0)
(-5.6295e+16 1.57626e+17 0)
(-4.5036e+16 1.35108e+17 0)
(-1.01331e+17 1.23849e+17 0)
(-1.1259e+17 1.1259e+17 0)
(-5.6295e+16 6.7554e+16 0)
(-1.46367e+17 -4.5036e+16 0)
(-1.23849e+17 -1.46367e+17 0)
(9.0072e+16 1.1259e+17 0)
(6.7554e+16 6.7554e+16 0)
(-3.3777e+16 7.8813e+16 0)
(-1.01331e+17 1.01331e+17 0)
(-1.01331e+17 3.3777e+16 0)
(-1.01331e+17 -4.5036e+16 0)
(-1.46367e+17 2.2518e+16 0)
(-1.91403e+17 -3.3777e+16 0)
(-2.58957e+17 -1.91403e+17 0)
(-1.46367e+17 -1.01331e+17 0)
(2.2518e+16 5.6295e+16 0)
(-1.1259e+16 -1.1259e+16 0)
(-1.1259e+16 -1.1259e+16 0)
(-1.01331e+17 1.1259e+16 0)
(-1.91403e+17 -1.1259e+16 0)
(-1.35108e+17 -7.8813e+16 0)
(-9.0072e+16 -3.3777e+16 0)
(-2.70216e+17 -4.5036e+16 0)
(-2.2518e+17 -1.1259e+17 0)
(-4.5036e+16 -1.1259e+16 0)
)
;

boundaryField
{
    left
    {
        type            calculated;
        value           nonuniform List<vector> 10((0 -1.01331e+17 0) (0 -1.80144e+17 0) (0 -1.1259e+16 0) (0 1.23849e+17 0) (0 0 0) (0 -1.1259e+16 0) (0 1.35108e+17 0) (0 1.57626e+17 0) (0 1.1259e+17 0) (0 5.6295e+16 0));
    }
    right
    {
        type            calculated;
        value           nonuniform List<vector> 10((0 -1.1259e+16 0) (0 3.3777e+16 0) (0 4.5036e+16 0) (0 -3.3777e+16 0) (0 -5.6295e+16 0) (0 -2.2518e+16 0) (0 -4.5036e+16 0) (0 -1.46367e+17 0) (0 -1.01331e+17 0) (0 -1.1259e+16 0));
    }
    top
    {
        type            calculated;
        value           nonuniform List<vector> 10((2.2518e+16 0 0) (-1.1259e+16 0 0) (-1.1259e+16 0 0) (-1.01331e+17 0 0) (-1.91403e+17 0 0) (-1.35108e+17 0 0) (-9.0072e+16 0 0) (-2.70216e+17 0 0) (-2.2518e+17 0 0) (-4.5036e+16 0 0));
    }
    bottom
    {
        type            calculated;
        value           nonuniform List<vector> 10((-1.01331e+17 0 0) (-2.02662e+17 0 0) (-4.5036e+16 0 0) (2.2518e+16 0 0) (-1.35108e+17 0 0) (-9.0072e+16 0 0) (4.5036e+16 0 0) (-2.2518e+16 0 0) (3.3777e+16 0 0) (6.7554e+16 0 0));
    }
    defaultFaces
    {
        type            empty;
    }
}


// ************************************************************************* //
