/*--------------------------------*- C++ -*----------------------------------*\
| =========                 |                                                 |
| \\      /  F ield         | OpenFOAM: The Open Source CFD Toolbox           |
|  \\    /   O peration     | Version:  2406                                  |
|   \\  /    A nd           | Website:  www.openfoam.com                      |
|    \\/     M anipulation  |                                                 |
\*---------------------------------------------------------------------------*/
FoamFile
{
    version     2.0;
    format      ascii;
    arch        "LSB;label=32;scalar=64";
    class       volScalarField;
    location    "8.35";
    object      gradTy;
}
// * * * * * * * * * * * * * * * * * * * * * * * * * * * * * * * * * * * * * //

dimensions      [0 -1 0 1 0 0 0];

internalField   nonuniform List<scalar> 
100
(
-2.53327e+18
-8.44425e+17
1.40737e+18
2.2518e+18
1.1259e+18
-2.81475e+17
2.81475e+17
2.81475e+17
0
-2.81475e+17
-4.5036e+18
-1.1259e+18
4.5036e+18
4.22212e+18
1.40737e+18
8.44425e+17
1.68885e+18
5.6295e+17
2.2518e+18
8.44425e+17
-2.81475e+17
1.1259e+18
2.2518e+18
1.97032e+18
1.1259e+18
2.53327e+18
8.44425e+17
2.81475e+17
2.2518e+18
1.1259e+18
3.09622e+18
1.68885e+18
-1.68885e+18
-2.2518e+18
-1.1259e+18
5.6295e+17
-1.68885e+18
-1.1259e+18
5.6295e+17
-8.44425e+17
0
-8.44425e+17
-2.53327e+18
-2.53327e+18
-2.53327e+18
2.81475e+17
-5.6295e+17
0
5.6295e+17
-1.40737e+18
-2.81475e+17
1.1259e+18
2.81475e+17
2.81475e+17
2.53327e+18
3.09622e+18
2.53327e+18
1.68885e+18
-2.81475e+17
-5.6295e+17
3.3777e+18
4.78507e+18
5.6295e+18
3.09622e+18
5.06655e+18
3.94065e+18
3.94065e+18
2.53327e+18
2.81475e+17
-1.1259e+18
3.94065e+18
5.06655e+18
5.91097e+18
3.94065e+18
3.3777e+18
3.09622e+18
2.81475e+18
1.68885e+18
-1.1259e+18
-3.65917e+18
2.81475e+18
1.68885e+18
1.97032e+18
2.53327e+18
8.44425e+17
-1.1259e+18
5.6295e+17
-8.44425e+17
-4.78507e+18
-2.53327e+18
1.40737e+18
-2.81475e+17
-2.81475e+17
2.81475e+17
-2.81475e+17
-1.97032e+18
-8.44425e+17
-1.1259e+18
-2.81475e+18
-2.81475e+17
)
;

boundaryField
{
    left
    {
        type            calculated;
        value           nonuniform List<scalar> 10(-2.53327e+18 -4.5036e+18 -2.81475e+17 3.09622e+18 0 -2.81475e+17 3.3777e+18 3.94065e+18 2.81475e+18 1.40737e+18);
    }
    right
    {
        type            calculated;
        value           nonuniform List<scalar> 10(-2.81475e+17 8.44425e+17 1.1259e+18 -8.44425e+17 -1.40737e+18 -5.6295e+17 -1.1259e+18 -3.65917e+18 -2.53327e+18 -2.81475e+17);
    }
    top
    {
        type            calculated;
        value           uniform 0;
    }
    bottom
    {
        type            calculated;
        value           uniform 0;
    }
    defaultFaces
    {
        type            empty;
    }
}


// ************************************************************************* //
