/*--------------------------------*- C++ -*----------------------------------*\
| =========                 |                                                 |
| \\      /  F ield         | OpenFOAM: The Open Source CFD Toolbox           |
|  \\    /   O peration     | Version:  2406                                  |
|   \\  /    A nd           | Website:  www.openfoam.com                      |
|    \\/     M anipulation  |                                                 |
\*---------------------------------------------------------------------------*/
FoamFile
{
    version     2.0;
    format      ascii;
    arch        "LSB;label=32;scalar=64";
    class       volVectorField;
    location    "0.45";
    object      flux;
}
// * * * * * * * * * * * * * * * * * * * * * * * * * * * * * * * * * * * * * //

dimensions      [0 1 -1 1 0 0 0];

internalField   nonuniform List<vector> 
100
(
(-6.09864e-19 -6.09864e-19 0)
(-1.15196e-18 -1.35525e-19 0)
(6.77626e-20 1.35525e-19 0)
(6.09864e-19 4.06576e-19 0)
(-6.09864e-19 -6.77626e-20 0)
(-5.42101e-19 -2.03288e-19 0)
(1.35525e-19 -6.77626e-20 0)
(0 -6.77626e-20 0)
(2.03288e-19 -1.35525e-19 0)
(3.38813e-19 -2.71051e-19 0)
(-2.03288e-19 -1.21973e-18 0)
(-3.38813e-19 -2.71051e-19 0)
(6.09864e-19 6.77626e-19 0)
(4.74338e-19 6.09864e-19 0)
(-1.21973e-18 0 0)
(-6.09864e-19 0 0)
(2.71051e-19 6.77626e-20 0)
(-1.35525e-19 -1.35525e-19 0)
(1.35525e-19 3.38813e-19 0)
(1.35525e-19 -6.77626e-20 0)
(3.38813e-19 -2.03288e-19 0)
(6.77626e-19 6.77626e-20 0)
(8.80914e-19 6.09864e-19 0)
(-6.77626e-20 1.35525e-19 0)
(-1.21973e-18 6.77626e-20 0)
(-4.74338e-19 6.09864e-19 0)
(2.03288e-19 2.03288e-19 0)
(2.71051e-19 -1.35525e-19 0)
(6.77626e-20 2.71051e-19 0)
(-6.77626e-20 1.35525e-19 0)
(2.03288e-19 7.45389e-19 0)
(3.38813e-19 3.38813e-19 0)
(6.09864e-19 -6.77626e-20 0)
(-1.35525e-19 -4.06576e-19 0)
(-6.77626e-19 -3.38813e-19 0)
(-5.42101e-19 -1.35525e-19 0)
(-4.74338e-19 -2.71051e-19 0)
(0 -2.71051e-19 0)
(3.38813e-19 0 0)
(2.71051e-19 -1.35525e-19 0)
(-6.77626e-20 -4.06576e-19 0)
(0 -5.42101e-19 0)
(2.71051e-19 -1.0842e-18 0)
(-4.06576e-19 -8.80914e-19 0)
(-8.80914e-19 -9.48677e-19 0)
(-5.42101e-19 -4.06576e-19 0)
(6.77626e-20 -5.42101e-19 0)
(5.42101e-19 6.77626e-20 0)
(2.03288e-19 2.71051e-19 0)
(-2.71051e-19 -4.06576e-19 0)
(6.77626e-20 -4.74338e-19 0)
(-3.38813e-19 -2.03288e-19 0)
(1.35525e-19 -4.74338e-19 0)
(0 -4.74338e-19 0)
(-2.03288e-19 0 0)
(-2.03288e-19 4.06576e-19 0)
(0 2.03288e-19 0)
(8.13152e-19 1.35525e-19 0)
(0 0 0)
(-4.74338e-19 1.35525e-19 0)
(1.35525e-19 4.74338e-19 0)
(-6.77626e-20 6.77626e-19 0)
(6.77626e-20 8.13152e-19 0)
(2.71051e-19 2.03288e-19 0)
(-6.77626e-20 5.42101e-19 0)
(-2.03288e-19 4.74338e-19 0)
(-1.35525e-19 6.09864e-19 0)
(2.71051e-19 4.06576e-19 0)
(6.77626e-20 2.71051e-19 0)
(-2.71051e-19 0 0)
(2.71051e-19 6.09864e-19 0)
(6.77626e-20 7.45389e-19 0)
(-4.06576e-19 1.0842e-18 0)
(-3.38813e-19 4.06576e-19 0)
(6.77626e-20 3.38813e-19 0)
(-1.35525e-19 4.74338e-19 0)
(0 6.09864e-19 0)
(4.06576e-19 6.09864e-19 0)
(-4.06576e-19 6.77626e-20 0)
(-7.45389e-19 -5.42101e-19 0)
(4.74338e-19 2.03288e-19 0)
(3.38813e-19 0 0)
(-2.71051e-19 -1.35525e-19 0)
(-5.42101e-19 2.71051e-19 0)
(0 0 0)
(1.35525e-19 -2.03288e-19 0)
(-1.35525e-19 3.38813e-19 0)
(-1.35525e-19 -6.77626e-20 0)
(-9.48677e-19 -9.48677e-19 0)
(-8.13152e-19 -6.77626e-20 0)
(6.77626e-20 6.77626e-20 0)
(-1.35525e-19 -2.03288e-19 0)
(-6.77626e-20 -3.38813e-19 0)
(-3.38813e-19 0 0)
(-5.42101e-19 -2.71051e-19 0)
(1.35525e-19 -6.09864e-19 0)
(2.71051e-19 -1.35525e-19 0)
(-8.80914e-19 -2.71051e-19 0)
(-4.74338e-19 -8.13152e-19 0)
(2.71051e-19 2.71051e-19 0)
)
;

boundaryField
{
    left
    {
        type            calculated;
        value           nonuniform List<vector> 10((0 -6.09864e-19 0) (0 -1.21973e-18 0) (0 -2.03288e-19 0) (0 7.45389e-19 0) (0 -4.06576e-19 0) (0 -4.74338e-19 0) (0 4.74338e-19 0) (0 6.09864e-19 0) (0 2.03288e-19 0) (0 6.77626e-20 0));
    }
    right
    {
        type            calculated;
        value           nonuniform List<vector> 10((0 -2.71051e-19 0) (0 -6.77626e-20 0) (0 1.35525e-19 0) (0 -1.35525e-19 0) (0 -4.06576e-19 0) (0 1.35525e-19 0) (0 0 0) (0 -5.42101e-19 0) (0 -6.77626e-20 0) (0 2.71051e-19 0));
    }
    top
    {
        type            calculated;
        value           nonuniform List<vector> 10((6.77626e-20 0 0) (-1.35525e-19 0 0) (-6.77626e-20 0 0) (-3.38813e-19 0 0) (-5.42101e-19 0 0) (1.35525e-19 0 0) (2.71051e-19 0 0) (-8.80914e-19 0 0) (-4.74338e-19 0 0) (2.71051e-19 0 0));
    }
    bottom
    {
        type            calculated;
        value           nonuniform List<vector> 10((-6.09864e-19 0 0) (-1.15196e-18 0 0) (6.77626e-20 0 0) (6.09864e-19 0 0) (-6.09864e-19 0 0) (-5.42101e-19 0 0) (1.35525e-19 0 0) (0 0 0) (2.03288e-19 0 0) (3.38813e-19 0 0));
    }
    defaultFaces
    {
        type            empty;
    }
}


// ************************************************************************* //
