/*--------------------------------*- C++ -*----------------------------------*\
| =========                 |                                                 |
| \\      /  F ield         | OpenFOAM: The Open Source CFD Toolbox           |
|  \\    /   O peration     | Version:  2406                                  |
|   \\  /    A nd           | Website:  www.openfoam.com                      |
|    \\/     M anipulation  |                                                 |
\*---------------------------------------------------------------------------*/
FoamFile
{
    version     2.0;
    format      ascii;
    arch        "LSB;label=32;scalar=64";
    class       volScalarField;
    location    "9.8";
    object      gradTy;
}
// * * * * * * * * * * * * * * * * * * * * * * * * * * * * * * * * * * * * * //

dimensions      [0 -1 0 1 0 0 0];

internalField   nonuniform List<scalar> 
100
(
-5.31266e+24
-2.36118e+24
4.13207e+24
5.31266e+24
1.18059e+24
0
1.77089e+24
5.90296e+23
5.90296e+23
0
-1.29865e+25
-1.18059e+24
1.29865e+25
9.44473e+24
3.54177e+24
1.18059e+24
5.90296e+24
2.95148e+24
7.08355e+24
2.36118e+24
-5.90296e+23
2.95148e+24
5.31266e+24
5.31266e+24
2.95148e+24
8.85444e+24
5.31266e+24
1.77089e+24
6.49325e+24
5.31266e+24
1.0035e+25
3.54177e+24
-3.54177e+24
-4.13207e+24
-1.77089e+24
4.13207e+24
0
5.90296e+23
4.72237e+24
-5.90296e+23
-1.77089e+24
-2.36118e+24
-5.31266e+24
-7.67385e+24
-5.31266e+24
-5.90296e+23
-2.95148e+24
2.36118e+24
3.54177e+24
-4.72237e+24
-5.90296e+23
1.18059e+24
5.90296e+23
1.18059e+24
7.08355e+24
8.26414e+24
5.90296e+24
2.36118e+24
-1.77089e+24
-3.54177e+24
8.26414e+24
1.0035e+25
1.29865e+25
5.31266e+24
1.06253e+25
1.12156e+25
1.23962e+25
7.67385e+24
5.90296e+23
-7.08355e+24
8.85444e+24
1.29865e+25
1.41671e+25
8.26414e+24
6.49325e+24
8.26414e+24
6.49325e+24
3.54177e+24
-2.95148e+24
-7.67385e+24
7.67385e+24
5.90296e+24
2.36118e+24
6.49325e+24
2.95148e+24
-1.18059e+24
2.36118e+24
-2.95148e+24
-1.29865e+25
-2.95148e+24
4.72237e+24
1.18059e+24
-3.54177e+24
1.18059e+24
-5.90296e+23
-2.95148e+24
5.90296e+23
-2.95148e+24
-6.49325e+24
-5.90296e+23
)
;

boundaryField
{
    left
    {
        type            calculated;
        value           nonuniform List<scalar> 10(-5.31266e+24 -1.29865e+25 -5.90296e+23 1.0035e+25 -1.77089e+24 -5.90296e+23 8.26414e+24 8.85444e+24 7.67385e+24 4.72237e+24);
    }
    right
    {
        type            calculated;
        value           nonuniform List<scalar> 10(0 2.36118e+24 5.31266e+24 -5.90296e+23 -4.72237e+24 -3.54177e+24 -7.08355e+24 -7.67385e+24 -2.95148e+24 -5.90296e+23);
    }
    top
    {
        type            calculated;
        value           uniform 0;
    }
    bottom
    {
        type            calculated;
        value           uniform 0;
    }
    defaultFaces
    {
        type            empty;
    }
}


// ************************************************************************* //
