/*--------------------------------*- C++ -*----------------------------------*\
| =========                 |                                                 |
| \\      /  F ield         | OpenFOAM: The Open Source CFD Toolbox           |
|  \\    /   O peration     | Version:  2406                                  |
|   \\  /    A nd           | Website:  www.openfoam.com                      |
|    \\/     M anipulation  |                                                 |
\*---------------------------------------------------------------------------*/
FoamFile
{
    version     2.0;
    format      ascii;
    arch        "LSB;label=32;scalar=64";
    class       volScalarField;
    location    "7.2";
    object      gradTy;
}
// * * * * * * * * * * * * * * * * * * * * * * * * * * * * * * * * * * * * * //

dimensions      [0 -1 0 1 0 0 0];

internalField   nonuniform List<scalar> 
100
(
-1.71799e+13
-2.14748e+12
8.58993e+12
1.71799e+13
0
0
-2.14748e+12
2.14748e+12
-4.29497e+12
-4.29497e+12
-3.22123e+13
-4.29497e+12
2.79173e+13
3.00648e+13
0
6.44245e+12
6.44245e+12
6.44245e+12
1.50324e+13
2.14748e+12
-2.14748e+12
8.58993e+12
2.57698e+13
8.58993e+12
1.07374e+13
2.14748e+13
1.28849e+13
-2.14748e+12
1.50324e+13
6.44245e+12
2.57698e+13
1.07374e+13
-4.29497e+12
-8.58993e+12
-1.07374e+13
2.14748e+12
-4.29497e+12
-8.58993e+12
-2.14748e+12
-8.58993e+12
2.14748e+12
-2.14748e+12
-2.36223e+13
-2.14748e+13
-2.14748e+13
-6.44245e+12
-1.28849e+13
4.29497e+12
4.29497e+12
-1.71799e+13
4.29497e+12
6.44245e+12
4.29497e+12
-6.44245e+12
2.36223e+13
2.79173e+13
1.28849e+13
6.44245e+12
-8.58993e+12
-8.58993e+12
2.79173e+13
3.22123e+13
3.43597e+13
2.14748e+13
3.00648e+13
2.57698e+13
2.36223e+13
1.50324e+13
2.14748e+12
-4.29497e+12
2.57698e+13
3.43597e+13
3.86547e+13
2.79173e+13
1.71799e+13
1.50324e+13
2.14748e+13
1.71799e+13
-2.14748e+12
-1.93274e+13
1.71799e+13
1.07374e+13
1.07374e+13
2.14748e+13
8.58993e+12
-2.14748e+12
1.28849e+13
-6.44245e+12
-3.00648e+13
-1.50324e+13
1.07374e+13
0
-2.14748e+12
4.29497e+12
0
-1.07374e+13
-2.14748e+12
-8.58993e+12
-2.36223e+13
0
)
;

boundaryField
{
    left
    {
        type            calculated;
        value           nonuniform List<scalar> 10(-1.71799e+13 -3.22123e+13 -2.14748e+12 2.57698e+13 2.14748e+12 4.29497e+12 2.79173e+13 2.57698e+13 1.71799e+13 1.07374e+13);
    }
    right
    {
        type            calculated;
        value           nonuniform List<scalar> 10(-4.29497e+12 2.14748e+12 6.44245e+12 -8.58993e+12 -1.71799e+13 -8.58993e+12 -4.29497e+12 -1.93274e+13 -1.50324e+13 0);
    }
    top
    {
        type            calculated;
        value           uniform 0;
    }
    bottom
    {
        type            calculated;
        value           uniform 0;
    }
    defaultFaces
    {
        type            empty;
    }
}


// ************************************************************************* //
